# vtk DataFile Version 3.0
Euler density step 356
ASCII
DATASET STRUCTURED_POINTS
DIMENSIONS 32 32 32
ORIGIN 0 0 0
SPACING 0.3125 0.3125 0.3125
POINT_DATA 32768
SCALARS density double 1
LOOKUP_TABLE default
1.0070008359052178
1.002031560657648
1.0070171757028759
1.0040862395601198
1.0070192669059588
1.0056500816415275
1.0070160860804975
1.006576096987964
1.0070143080488871
1.0069186338921972
1.0070139215531997
1.0069993497811911
1.0070138739505226
1.0070122462385565
1.0070138700106728
1.0070135984982542
1.0070138700106728
1.0070122462385565
1.0070138739505226
1.0069993497811911
1.0070139215531997
1.0069186338921972
1.0070143080488871
1.006576096987964
1.0070160860804975
1.0056500816415275
1.0070192669059588
1.0040862395601198
1.0070171757028759
1.002031560657648
1.0070008359052178
1.0000453978687025
1.0000627234934707
1.000079369554068
1.0000626843485805
1.0000710033431961
1.0000626749943526
1.0000660400886834
1.000062679403418
1.0000637254420064
1.0000626826590673
1.0000629173432924
1.0000626834896138
1.0000627212160631
1.0000626836062856
1.0000626880773604
1.0000626836167974
1.0000626844056439
1.0000626836167974
1.0000626880773604
1.0000626836062856
1.0000627212160631
1.0000626834896138
1.0000629173432924
1.0000626826590673
1.0000637254420064
1.000062679403418
1.0000660400886834
1.0000626749943526
1.0000710033431961
1.0000626843485805
1.000079369554068
1.0000627234934707
1.0000848110417238
1.0063519653726749
1.0022004525839987
1.0063607357185071
1.003918508593467
1.0063629382225983
1.0053111971782784
1.0063614806800942
1.0060601832051008
1.0063606900851736
1.0063025111484019
1.0063605386693579
1.0063526300577266
1.0063605222006691
1.0063597294054114
1.0063605209862854
1.0063604013565977
1.0063605209862854
1.0063597294054114
1.0063605222006691
1.0063526300577266
1.0063605386693579
1.0063025111484019
1.0063606900851736
1.0060601832051008
1.0063614806800942
1.0053111971782784
1.0063629382225983
1.003918508593467
1.0063607357185071
1.0022004525839987
1.0063519653726749
1.0001584362191025
1.0002337215471033
1.0002706475969254
1.000233724202459
1.0002505648595272
1.0002337190378192
1.0002395768557215
1.0002337184276584
1.0002352241739234
1.0002337189853068
1.000234000379026
1.0002337191618074
1.000233757769569
1.0002337191857957
1.0002337231838441
1.0002337191877106
1.0002337198191109
1.0002337191877106
1.0002337231838441
1.0002337191857957
1.000233757769569
1.0002337191618074
1.000234000379026
1.0002337189853068
1.0002352241739234
1.0002337184276584
1.0002395768557215
1.0002337190378192
1.0002505648595272
1.000233724202459
1.0002706475969254
1.0002337215471033
1.0002959571135133
1.0048864024057096
1.0020637977346603
1.0048897630943381
1.0034201318373277
1.0048907625544909
1.0043628896392272
1.0048904423899991
1.0047643389361902
1.0048902766253323
1.0048696165778666
1.0048902487003009
1.0048878247284465
1.0048902459906084
1.0048900336317437
1.0048902458123978
1.004890217472221
1.0048902458123978
1.0048900336317437
1.0048902459906084
1.0048878247284465
1.0048902487003009
1.0048696165778666
1.0048902766253323
1.0047643389361902
1.0048904423899991
1.0043628896392272
1.0048907625544909
1.0034201318373277
1.0048897630943381
1.0020637977346603
1.0048864024057096
1.0005527786369237
1.0008432209630775
1.0009561505416977
1.0008432366077908
1.0008946387096245
1.0008432386165489
1.000860314762648
1.0008432377191554
1.0008472817226441
1.0008432374675891
1.0008439285454005
1.0008432374393175
1.0008433249833313
1.0008432374372125
1.0008432459376559
1.0008432374370646
1.0008432387184927
1.0008432374370646
1.0008432459376559
1.0008432374372125
1.0008433249833313
1.0008432374393175
1.0008439285454005
1.0008432374675891
1.0008472817226441
1.0008432377191554
1.000860314762648
1.0008432386165489
1.0008946387096245
1.0008432366077908
1.0009561505416977
1.0008432209630775
1.001032231036755
1.0038460367160096
1.0027175722074888
1.0038468967140037
1.0033582094161204
1.0038471583498711
1.0037062009718771
1.003847130934961
1.0038201124735628
1.0038471127363564
1.0038435538063399
1.0038471098311386
1.0038467767831314
1.003847109570694
1.0038470869380767
1.0038471095554815
1.0038471073397073
1.0038471095554815
1.0038470869380767
1.003847109570694
1.0038467767831314
1.0038471098311386
1.0038435538063399
1.0038471127363564
1.0038201124735628
1.003847130934961
1.0037062009718771
1.0038471583498711
1.0033582094161204
1.0038468967140037
1.0027175722074888
1.0038460367160096
1.0019267346633276
1.0030980342214881
1.0034038823464297
1.0030980838291814
1.0032415144343809
1.003098096187911
1.0031467577212849
1.0030980932728721
1.0031097584269877
1.003098091853194
1.0031001005951437
1.0030980916266781
1.0030983476012156
1.0030980916052656
1.0030981165964523
1.0030980916038288
1.0030980953911823
1.0030980916038288
1.0030981165964523
1.0030980916052656
1.0030983476012156
1.0030980916266781
1.0031001005951437
1.003098091853194
1.0031097584269877
1.0030980932728721
1.0031467577212849
1.003098096187911
1.0032415144343809
1.0030980838291814
1.0034038823464297
1.0030980342214881
1.0035936025814203
1.0066731387498271
1.0067565918432326
1.006673366180965
1.006754258593503
1.0066734304923124
1.0067153031518175
1.006673424625095
1.0066862367445533
1.0066734203157248
1.0066759762233384
1.0066734195939846
1.0066737770269709
1.0066734195260267
1.0066734566356632
1.0066734195216782
1.0066734253820566
1.0066734195216782
1.0066734566356632
1.0066734195260267
1.0066737770269709
1.0066734195939846
1.0066759762233384
1.0066734203157248
1.0066862367445533
1.006673424625095
1.0067153031518175
1.0066734304923124
1.006754258593503
1.006673366180965
1.0067565918432326
1.0066731387498271
1.006692850924285
1.0113827538264599
1.012058321481117
1.0113829665370282
1.0117128149315562
1.0113830142364211
1.0114996898175777
1.0113829948163431
1.0114119484196702
1.0113829862652157
1.0113881058708845
1.0113829848898623
1.01138365034475
1.0113829847576707
1.0113830507005226
1.0113829847486357
1.0113829948523398
1.0113829847486357
1.0113830507005226
1.0113829847576707
1.01138365034475
1.0113829848898623
1.0113881058708845
1.0113829862652157
1.0114119484196702
1.0113829948163431
1.0114996898175777
1.0113830142364211
1.0117128149315562
1.0113829665370282
1.012058321481117
1.0113827538264599
1.0124316508531859
1.0217002343565194
1.022571135916402
1.0217006567286384
1.0221468163879484
1.0217007416853254
1.0218652587862711
1.0217006969275448
1.0217427154913215
1.0217006779818822
1.0217082472790016
1.0217006749280939
1.0217016704390187
1.0217006746327653
1.0217007740076058
1.021700674612418
1.0217006899046417
1.021700674612418
1.0217007740076058
1.0217006746327653
1.0217016704390187
1.0217006749280939
1.0217082472790016
1.0217006779818822
1.0217427154913215
1.0217006969275448
1.0218652587862711
1.0217007416853254
1.0221468163879484
1.0217006567286384
1.022571135916402
1.0217002343565194
1.0229773699100257
1.0402051907486822
1.0414809549254083
1.0402059656258942
1.0408494707364091
1.0402060872432501
1.0404421454167492
1.0402059870582374
1.0402662313985307
1.0402059476424446
1.0402167975604062
1.0402059413662872
1.0402073667809761
1.0402059407601292
1.0402060827280772
1.0402059407181892
1.0402059624951399
1.0402059407181892
1.0402060827280772
1.0402059407601292
1.0402073667809761
1.0402059413662872
1.0402167975604062
1.0402059476424446
1.0402662313985307
1.0402059870582374
1.0404421454167492
1.0402060872432501
1.0408494707364091
1.0402059656258942
1.0414809549254083
1.0402051907486822
1.0420877279156189
1.0734608020131895
1.0751305106706162
1.0734621999627327
1.0743125924701193
1.0734623474487779
1.0737778833747003
1.0734621428450326
1.0735431378333995
1.0734620674447226
1.0734766535506455
1.0734620556393888
1.0734639633740082
1.0734620545075002
1.0734622430703211
1.0734620544293749
1.0734620830796948
1.0734620544293749
1.0734622430703211
1.0734620545075002
1.0734639633740082
1.0734620556393888
1.0734766535506455
1.0734620674447226
1.0735431378333995
1.0734621428450326
1.0737778833747003
1.0734623474487779
1.0743125924701193
1.0734621999627327
1.0751305106706162
1.0734608020131895
1.0758581800212434
1.1298896274951924
1.1320526473646755
1.1298920613176593
1.1309910850929934
1.1298921641627175
1.1303004352800399
1.1298917736495184
1.1299960945426861
1.1298916403680861
1.1299102230558444
1.1298916201001732
1.1298940125088848
1.1298916181914425
1.1298918501121515
1.1298916180612952
1.1298916525533673
1.1298916180612952
1.1298918501121515
1.1298916181914425
1.1298940125088848
1.1298916201001732
1.1299102230558444
1.1298916403680861
1.1299960945426861
1.1298917736495184
1.1303004352800399
1.1298921641627175
1.1309910850929934
1.1298920613176593
1.1320526473646755
1.1298896274951924
1.1329642401978293
1.2187863127890155
1.2215024018367318
1.2187903103672235
1.2201672232232932
1.2187901980979974
1.2193000154403326
1.2187895075305637
1.2189179981108711
1.2187892914767731
1.2188116623930965
1.2187892600434247
1.2187920568600683
1.2187892571773442
1.2187895191678491
1.218789256986895
1.2187892945375547
1.218789256986895
1.2187895191678491
1.2187892571773442
1.2187920568600683
1.2187892600434247
1.2188116623930965
1.2187892914767731
1.2189179981108711
1.2187895075305637
1.2193000154403326
1.2187901980979974
1.2201672232232932
1.2187903103672235
1.2215024018367318
1.2187863127890155
1.2227001388253087
1.3435935781091297
1.3468770316660243
1.3435995470321622
1.3452659233567272
1.3435989310266512
1.3442111968081598
1.3435978197173213
1.3437485631077195
1.343597503276905
1.3436228299331878
1.3435974598638389
1.3436004887863193
1.3435974560883706
1.3435977256472635
1.343597455847658
1.3435974924062759
1.343597455847658
1.3435977256472635
1.3435974560883706
1.3436004887863193
1.3435974598638389
1.3436228299331878
1.343597503276905
1.3437485631077195
1.3435978197173213
1.3442111968081598
1.3435989310266512
1.3452659233567272
1.3435995470321622
1.3468770316660243
1.3435935781091297
1.3486451353339457
1.4934833639180376
1.4972432554214896
1.4934913086166464
1.4954162827075723
1.4934898812706887
1.4941892883882191
1.4934882950715755
1.4936547862459717
1.4934878862034111
1.4935145045107605
1.4934878341956102
1.4934908311002431
1.4934878299684038
1.4934880790712948
1.4934878297156211
1.493487861137395
1.4934878297156211
1.4934880790712948
1.4934878299684038
1.4934908311002431
1.4934878341956102
1.4935145045107605
1.4934878862034111
1.4936547862459717
1.4934882950715755
1.4941892883882191
1.4934898812706887
1.4954162827075723
1.4934913086166464
1.4972432554214896
1.4934833639180376
1.5
1.6433817997456615
1.6474534914053973
1.6433910410574541
1.6454984601411886
1.6433888458767256
1.6441368912021579
1.6433869413136319
1.6435563513173552
1.643386499423549
1.643411881971532
1.6433864482380027
1.6433891037080841
1.6433864444205151
1.6433866484001227
1.6433864442099622
1.6433864679390555
1.6433864442099622
1.6433866484001227
1.6433864444205151
1.6433891037080841
1.6433864482380027
1.643411881971532
1.643386499423549
1.6435563513173552
1.6433869413136319
1.6441368912021579
1.6433888458767256
1.6454984601411886
1.6433910410574541
1.6474534914053973
1.6433817997456615
1.6513548646660543
1.7685229274293031
1.7727330842707714
1.7685321095493221
1.7706979526058231
1.7685297355804803
1.7692632245991011
1.7685279002537699
1.7686833044618042
1.7685275161900467
1.7685491361369459
1.7685274758228831
1.7685295700066788
1.7685274730627485
1.7685276217837538
1.7685274729220999
1.7685274889222242
1.7685274729220999
1.7685276217837538
1.7685274730627485
1.7685295700066788
1.7685274758228831
1.7685491361369459
1.7685275161900467
1.7686833044618042
1.7685279002537699
1.7692632245991011
1.7685297355804803
1.7706979526058231
1.7685321095493221
1.7727330842707714
1.7685229274293031
1.7772998611746911
1.8583973185494203
1.8625413126976256
1.8584051472240344
1.8604582393577618
1.8584032237268924
1.8590527871712008
1.8584018040571719
1.8585295654433995
1.8584015333892892
1.8584180495111846
1.8584015073300384
1.8584029971047513
1.8584015056793686
1.858401604362603
1.8584015056008634
1.8584015155230367
1.8584015056008634
1.858401604362603
1.8584015056793686
1.8584029971047513
1.8584015073300384
1.8584180495111846
1.8584015333892892
1.8585295654433995
1.8584018040571719
1.8590527871712008
1.8584032237268924
1.8604582393577618
1.8584051472240344
1.8625413126976256
1.8583973185494203
1.8670357598021707
1.9164353364565176
1.9202239617246877
1.9164410978211968
1.918209481919245
1.9164398630746522
1.9169589007738665
1.9164389597312603
1.9165340158764981
1.9164388006064046
1.9164503132219959
1.9164387863713126
1.916439764231892
1.91643878552473
1.9164388467332223
1.9164387854866991
1.916438791319262
1.9164387854866991
1.9164388467332223
1.91643878552473
1.916439764231892
1.9164387863713126
1.9164503132219959
1.9164388006064046
1.9165340158764981
1.9164389597312603
1.9169589007738665
1.9164398630746522
1.918209481919245
1.9164410978211968
1.9202239617246877
1.9164353364565176
1.9241418199787566
1.9515411806027845
1.9547256582943489
1.9515448710041878
1.9529320051139547
1.9515442182595812
1.951923015278745
1.9515437306103247
1.9516088801956275
1.9515436500542944
1.9515511251723008
1.951543643259438
1.9515442486423111
1.9515436428750785
1.9515436791662575
1.9515436428585844
1.9515436461819688
1.9515436428585844
1.9515436791662575
1.9515436428750785
1.9515442486423111
1.951543643259438
1.9515511251723008
1.9515436500542944
1.9516088801956275
1.9515437306103247
1.951923015278745
1.9515442182595812
1.9529320051139547
1.9515448710041878
1.9547256582943489
1.9515411806027845
1.9579122720843811
1.9723254342515408
1.97470196113312
1.9723275077655158
1.9733104681602294
1.9723272214125733
1.9725812286649933
1.9723269929113967
1.9723686319604439
1.9723269568828057
1.972331544173809
1.9723269539746293
1.9723273127377678
1.9723269538162891
1.9723269746718481
1.9723269538097323
1.9723269556677652
1.9723269538097323
1.9723269746718481
1.9723269538162891
1.9723273127377678
1.9723269539746293
1.972331544173809
1.9723269568828057
1.9723686319604439
1.9723269929113967
1.9725812286649933
1.9723272214125733
1.9733104681602294
1.9723275077655158
1.97470196113312
1.9723254342515408
1.9770226300899743
1.9840799169350021
1.9858177800766266
1.9840809652919411
1.9847513898169054
1.9840808525832141
1.984244164864607
1.9840807556460589
1.9841063506677921
1.9840807409705044
1.9840834647898564
1.9840807398283686
1.9840809470549789
1.98408073976807
1.9840807515425236
1.984080739765641
1.9840807407945034
1.984080739765641
1.9840807515425236
1.98408073976807
1.9840809470549789
1.9840807398283686
1.9840834647898564
1.9840807409705044
1.9841063506677921
1.9840807556460589
1.984244164864607
1.9840808525832141
1.9847513898169054
1.9840809652919411
1.9858177800766266
1.9840799169350021
1.9875683491468141
1.9919254066172991
1.9926463767723643
1.9919259652770003
1.9922328014304296
1.991925948353062
1.9920055431585968
1.9919259125321447
1.9919388305799719
1.991925906886443
1.9919273078425543
1.9919259064413486
1.9919260140884896
1.9919259064178738
1.9919259125635504
1.9919259064169446
1.9919259069548583
1.9919259064169446
1.9919259125635504
1.9919259064178738
1.9919260140884896
1.9919259064413486
1.9919273078425543
1.991925906886443
1.9919388305799719
1.9919259125321447
1.9920055431585968
1.991925948353062
1.9922328014304296
1.9919259652770003
1.9926463767723643
1.9919254066172991
1.993307149075715
1.9949002927151691
1.9956347689853875
1.9949004921830935
1.9951613606089422
1.9949004803515851
1.9949595839752954
1.994900467064415
1.9949092264886634
1.9949004651604405
1.9949013584328521
1.9949004650201911
1.9949005307643983
1.994900465013139
1.9949004686509915
1.9949004650128657
1.9949004653239455
1.9949004650128657
1.9949004686509915
1.994900465013139
1.9949005307643983
1.9949004650201911
1.9949013584328521
1.9949004651604405
1.9949092264886634
1.994900467064415
1.9949595839752954
1.9949004803515851
1.9951613606089422
1.9949004921830935
1.9956347689853875
1.9949002927151691
1.9964063974185799
2.000245595381561
1.9990507306515575
2.0002466066919125
1.9998467022813202
2.000246615909643
2.0001677795852926
2.0002465610168709
2.00023682656095
2.0002465520546746
2.0002457459066072
2.0002465513193251
2.0002465040920452
2.000246551278877
2.0002465492436472
2.0002465512772227
2.0002465511452443
2.0002465512772227
2.0002465492436472
2.000246551278877
2.0002465040920452
2.0002465513193251
2.0002457459066072
2.0002465520546746
2.00023682656095
2.0002465610168709
2.0001677795852926
2.000246615909643
1.9998467022813202
2.0002466066919125
1.9990507306515575
2.000245595381561
1.9980732653366724
1.9984340995424523
1.9986992681700417
1.9984341206926308
1.9985283339781788
1.9984341207138998
1.9984555916935354
1.9984341212515315
1.9984373198805738
1.9984341214741228
1.9984344484706611
1.9984341215033485
1.9984341455642625
1.9984341215054933
1.998434122833634
1.9984341215055987
1.9984341216187074
1.9984341215055987
1.998434122833634
1.9984341215054933
1.9984341455642625
1.9984341215033485
1.9984344484706611
1.9984341214741228
1.9984373198805738
1.9984341212515315
1.9984555916935354
1.9984341207138998
1.9985283339781788
1.9984341206926308
1.9986992681700417
1.9984340995424523
1.9989677689632452
2.0046978043724057
2.001448882210938
2.0047025503649509
2.0032961858110472
2.0047019216722934
2.0043398239193539
2.0047013676197407
2.0046439808679906
2.0047012787348906
2.004695256666631
2.0047012714073071
2.0047008259541066
2.0047012709985381
2.0047012465938332
2.0047012709813079
2.0047012689354111
2.0047012709813079
2.0047012465938332
2.0047012709985381
2.0047008259541066
2.0047012714073071
2.004695256666631
2.0047012787348906
2.0046439808679906
2.0047013676197407
2.0043398239193539
2.0047019216722934
2.0032961858110472
2.0047025503649509
2.001448882210938
2.0046978043724057
1.9994472213630763
1.9995680303663552
1.9996465483469732
1.9995679985211405
1.9996002810741538
1.9995680059895666
1.9995770003114799
1.99956801396149
1.9995696414379815
1.999568015756013
1.999568212380296
1.9995680159555871
1.9995680325911274
1.9995680159695606
1.9995680170018657
1.9995680159702569
1.999568016067226
1.9995680159702569
1.9995680170018657
1.9995680159695606
1.9995680325911274
1.9995680159555871
1.999568212380296
1.999568015756013
1.9995696414379815
1.99956801396149
1.9995770003114799
1.9995680059895666
1.9996002810741538
1.9995679985211405
1.9996465483469732
1.9995680303663552
1.999704042886487
2.0069225295156006
2.0027356232065636
2.0069342955677696
2.0048508107719236
2.0069302156899891
2.0062827778477619
2.0069280225533834
2.0068057535901063
2.0069276449698785
2.006912673194384
2.0069276108664669
2.0069263416926044
2.0069276088234256
2.0069275302467031
2.0069276087319796
2.0069276013784552
2.0069276087319796
2.0069275302467031
2.0069276088234256
2.0069263416926044
2.0069276108664669
2.006912673194384
2.0069276449698785
2.0068057535901063
2.0069280225533834
2.0062827778477619
2.0069302156899891
2.0048508107719236
2.0069342955677696
2.0027356232065636
2.0069225295156006
1.9998415637808975
1.9999151889582765
1.9999151889582765
1.9999151889582765
1.9999151889582765
1.9999151889582765
1.9999151889582765
1.9999151889582765
1.9999151889582765
1.9999151889582765
1.9999151889582765
1.9999151889582765
1.9999151889582765
1.9999151889582765
1.9999151889582765
1.9999151889582765
1.9999151889582765
1.9999151889582765
1.9999151889582765
1.9999151889582765
1.9999151889582765
1.9999151889582765
1.9999151889582765
1.9999151889582765
1.9999151889582765
1.9999151889582765
1.9999151889582765
1.9999151889582765
1.9999151889582765
1.9999151889582765
1.9999151889582765
1.9999151889582765
1.9999151889582765
1.0039164406040166
1.0019425460457283
1.0039295911418504
1.0025989945398313
1.0039295382275497
1.0031001574547636
1.003927080924842
1.0035777624301132
1.0039254030137146
1.0038308150005415
1.0039249318173387
1.0039076401923717
1.0039248581215863
1.003922586379641
1.0039248504802285
1.0039244118843953
1.0039248504802285
1.003922586379641
1.0039248581215863
1.0039076401923717
1.0039249318173387
1.0038308150005415
1.0039254030137146
1.0035777624301132
1.003927080924842
1.0031001574547636
1.0039295382275497
1.0025989945398313
1.0039295911418504
1.0019425460457283
1.0039164406040166
1.0000453978687025
1.0000705070703957
1.0000822624172045
1.0000704733741752
1.0000764042074213
1.0000704669747602
1.0000726712141599
1.0000704709832513
1.000071137968563
1.0000704739321054
1.0000706362552936
1.0000704748153186
1.0000705050008387
1.0000704749666174
1.0000704792151123
1.0000704749836316
1.0000704758738437
1.0000704749836316
1.0000704792151123
1.0000704749666174
1.0000705050008387
1.0000704748153186
1.0000706362552936
1.0000704739321054
1.000071137968563
1.0000704709832513
1.0000726712141599
1.0000704669747602
1.0000764042074213
1.0000704733741752
1.0000822624172045
1.0000705070703957
1.0000848110417238
1.0024326716968337
1.0007971361010004
1.0024390876766214
1.0012014976103527
1.0024407223404965
1.0017127061452331
1.0024395744775705
1.0021695195151432
1.0024387157220156
1.0023745517737055
1.0024385006516117
1.0024281032910083
1.002438470767123
1.0024372481750135
1.0024384679631462
1.0024382540850048
1.0024384679631462
1.0024372481750135
1.002438470767123
1.0024281032910083
1.0024385006516117
1.0023745517737055
1.0024387157220156
1.0021695195151432
1.0024395744775705
1.0017127061452331
1.0024407223404965
1.0012014976103527
1.0024390876766214
1.0007971361010004
1.0024326716968337
1.0001584362191025
1.0002565787822351
1.0002816057670165
1.0002565933464427
1.0002679165897626
1.0002565894375244
1.0002604177435328
1.0002565868798601
1.0002576063469741
1.0002565866403539
1.0002567992514502
1.0002565867111457
1.0002566206116583
1.0002565867323001
1.0002565908743384
1.000256586735091
1.0002565875044109
1.000256586735091
1.0002565908743384
1.0002565867323001
1.0002566206116583
1.0002565867111457
1.0002567992514502
1.0002565866403539
1.0002576063469741
1.0002565868798601
1.0002604177435328
1.0002565894375244
1.0002679165897626
1.0002565933464427
1.0002816057670165
1.0002565787822351
1.0002959571135133
1.002500390542636
1.0010229825543047
1.0025029176594094
1.0015132718459674
1.0025038406155704
1.0020460182312525
1.0025035166951732
1.0023681152157711
1.0025032886816891
1.0024766831971028
1.0025032392153284
1.0024995659368627
1.0025032330741006
1.0025028574291022
1.0025032325459653
1.0025031743105537
1.0025032325459653
1.0025028574291022
1.0025032330741006
1.0024995659368627
1.0025032392153284
1.0024766831971028
1.0025032886816891
1.0023681152157711
1.0025035166951732
1.0020460182312525
1.0025038406155704
1.0015132718459674
1.0025029176594094
1.0010229825543047
1.002500390542636
1.0005527786369237
1.000918518667014
1.0009929143066019
1.0009185370770957
1.0009560552846923
1.0009185396195768
1.0009327529475709
1.000918538048106
1.0009224042705225
1.000918537494907
1.0009192925598649
1.0009185374158589
1.0009186457820147
1.0009185374093135
1.0009185492410158
1.0009185374089724
1.0009185393955398
1.0009185374089724
1.0009185492410158
1.0009185374093135
1.0009186457820147
1.0009185374158589
1.0009192925598649
1.000918537494907
1.0009224042705225
1.000918538048106
1.0009327529475709
1.0009185396195768
1.0009560552846923
1.0009185370770957
1.0009929143066019
1.000918518667014
1.001032231036755
1.0031773398838399
1.0023388079559952
1.0031781165338383
1.0027343276296798
1.0031784006597706
1.0030212094523419
1.0031783587193621
1.0031418676079038
1.0031783256867559
1.0031725483387401
1.0031783190485253
1.0031776659676406
1.0031783182758536
1.0031782633581041
1.0031783182132052
1.0031783112162258
1.0031783182132052
1.0031782633581041
1.0031783182758536
1.0031776659676406
1.0031783190485253
1.0031725483387401
1.0031783256867559
1.0031418676079038
1.0031783587193621
1.0030212094523419
1.0031784006597706
1.0027343276296798
1.0031781165338383
1.0023388079559952
1.0031773398838399
1.0019267346633276
1.0033258932117994
1.0035132865620611
1.0033259359805691
1.0034269342958779
1.0033259468087912
1.0033662149999281
1.0033259435123936
1.0033371904260211
1.0033259416925961
1.0033281622388253
1.0033259413496001
1.00332626117163
1.0033259413112638
1.0033259762508175
1.0033259413082316
1.0033259471728802
1.0033259413082316
1.0033259762508175
1.0033259413112638
1.00332626117163
1.0033259413496001
1.0033281622388253
1.0033259416925961
1.0033371904260211
1.0033259435123936
1.0033662149999281
1.0033259468087912
1.0034269342958779
1.0033259359805691
1.0035132865620611
1.0033258932117994
1.0035936025814203
1.0069323531164345
1.0068422429695287
1.0069325750947216
1.0069267076742032
1.006932646173909
1.0069487857980237
1.0069326386295852
1.006941236126869
1.0069326320780738
1.0069349045272959
1.006932630754596
1.0069330156707741
1.0069326306016906
1.006932677081636
1.0069326305894559
1.0069326389091884
1.0069326305894559
1.006932677081636
1.0069326306016906
1.0069330156707741
1.006932630754596
1.0069349045272959
1.0069326320780738
1.006941236126869
1.0069326386295852
1.0069487857980237
1.006932646173909
1.0069267076742032
1.0069325750947216
1.0068422429695287
1.0069323531164345
1.006692850924285
1.0119634945854055
1.01232258244222
1.0119636478471645
1.012169533957449
1.0119636812358987
1.0120514992271687
1.0119636632811839
1.0119895449885039
1.0119636540178261
1.0119689675970471
1.0119636522267803
1.0119644392335991
1.0119636520209681
1.0119637397521248
1.0119636520042721
1.0119636669419561
1.0119636520042721
1.0119637397521248
1.0119636520209681
1.0119644392335991
1.0119636522267803
1.0119689675970471
1.0119636540178261
1.0119895449885039
1.0119636632811839
1.0120514992271687
1.0119636812358987
1.012169533957449
1.0119636478471645
1.01232258244222
1.0119634945854055
1.0124316508531859
1.0225724715727891
1.0229485361276274
1.022572762236001
1.0228132458564727
1.0225728175775151
1.0226851561575989
1.0225727801137094
1.0226078459446195
1.0225727611880131
1.0225802130067665
1.0225727574882095
1.0225738844406564
1.0225727570585181
1.0225728842857997
1.0225727570233778
1.0225727788456909
1.0225727570233778
1.0225728842857997
1.0225727570585181
1.0225738844406564
1.0225727574882095
1.0225802130067665
1.0225727611880131
1.0226078459446195
1.0225727801137094
1.0226851561575989
1.0225728175775151
1.0228132458564727
1.022572762236001
1.0229485361276274
1.0225724715727891
1.0229773699100257
1.0414337937063252
1.0420012153580269
1.0414342760705306
1.0417754536427144
1.0414343352929212
1.0415901108049102
1.0414342586445915
1.0414826574643554
1.041434222822442
1.04144450679728
1.0414342158740761
1.0414357707090338
1.0414342150662848
1.0414343902938565
1.0414342150000244
1.041434244958878
1.0414342150000244
1.0414343902938565
1.0414342150662848
1.0414357707090338
1.0414342158740761
1.04144450679728
1.041434222822442
1.0414826574643554
1.0414342586445915
1.0415901108049102
1.0414343352929212
1.0417754536427144
1.0414342760705306
1.0420012153580269
1.0414337937063252
1.0420877279156189
1.0751215761670827
1.0757920239381269
1.0751223818742819
1.0755316660415433
1.0751224254384248
1.0753150594761929
1.0751222843896677
1.0751833279320788
1.0751222223526176
1.0751353004255138
1.0751222104332678
1.0751241879182725
1.0751222090516637
1.0751224306806353
1.0751222089385994
1.0751222464872783
1.0751222089385994
1.0751224306806353
1.0751222090516637
1.0751241879182725
1.0751222104332678
1.0751353004255138
1.0751222223526176
1.0751833279320788
1.0751222843896677
1.0753150594761929
1.0751224254384248
1.0755316660415433
1.0751223818742819
1.0757920239381269
1.0751215761670827
1.0758581800212434
1.1319924674766146
1.1327973274235792
1.1319937382483645
1.1324780635389273
1.1319937067528223
1.132224469184608
1.131993466873279
1.1320669720709886
1.1319933685868067
1.1320090294717335
1.1319933501158748
1.13199568634034
1.1319933480056916
1.1319936048169379
1.1319933478352617
1.131993390362243
1.1319933478352617
1.1319936048169379
1.1319933480056916
1.13199568634034
1.1319933501158748
1.1320090294717335
1.1319933685868067
1.1320669720709886
1.131993466873279
1.132224469184608
1.1319937067528223
1.1324780635389273
1.1319937382483645
1.1327973274235792
1.1319924674766146
1.1329642401978293
1.2212780583338196
1.2221899107054957
1.2212798607398379
1.2218284243355473
1.2212796715798375
1.2215442253755622
1.2212793028682705
1.2213631498728446
1.2212791626892703
1.2212966800548164
1.221279137276567
1.2212816744689776
1.2212791344553062
1.2212794032294789
1.2212791342335469
1.2212791769365345
1.2212791342335469
1.2212794032294789
1.2212791344553062
1.2212816744689776
1.221279137276567
1.2212966800548164
1.2212791626892703
1.2213631498728446
1.2212793028682705
1.2215442253755622
1.2212796715798375
1.2218284243355473
1.2212798607398379
1.2221899107054957
1.2212780583338196
1.2227001388253087
1.3463492497512062
1.3473287939901657
1.3463514661931673
1.3469494266853623
1.3463510613048491
1.3466415319085541
1.346350561469726
1.3464409115885922
1.3463503846657354
1.3463685572526534
1.346350354180295
1.3463528557701594
1.346350350952874
1.3463506004284775
1.346350350711329
1.3463503878385465
1.346350350711329
1.3463506004284775
1.346350350952874
1.3463528557701594
1.346350354180295
1.3463685572526534
1.3463503846657354
1.3464409115885922
1.346350561469726
1.3466415319085541
1.3463510613048491
1.3469494266853623
1.3463514661931673
1.3473287939901657
1.3463492497512062
1.3486451353339457
1.4965433160130654
1.4975263502138176
1.4965456689860912
1.4971730159439931
1.4965451173433231
1.4968501033877859
1.4965445391712691
1.4966354415221663
1.4965443492693227
1.4965614694088536
1.4965443189453469
1.4965464995686992
1.4965443159741914
1.496544515775537
1.4965443157684908
1.4965443430332208
1.4965443157684908
1.496544515775537
1.4965443159741914
1.4965464995686992
1.4965443189453469
1.4965614694088536
1.4965443492693227
1.4966354415221663
1.4965445391712691
1.4968501033877859
1.4965451173433231
1.4971730159439931
1.4965456689860912
1.4975263502138176
1.4965433160130654
1.5
1.647082386431403
1.6480468654984575
1.6470845077955363
1.6477342057266338
1.6470840246374572
1.6473864510590015
1.6470834910581851
1.6471663167320256
1.6470833304133572
1.6470975066632532
1.6470833071818516