# vtk DataFile Version 3.0
Euler density step 270
ASCII
DATASET STRUCTURED_POINTS
DIMENSIONS 32 32 32
ORIGIN 0 0 0
SPACING 0.3125 0.3125 0.3125
POINT_DATA 32768
SCALARS density double 1
LOOKUP_TABLE default
1.0052244131334098
1.0020001055158521
1.0052316507714762
1.0038925625300894
1.0052305150175989
1.0048745330666082
1.005229567645967
1.0051697027219706
1.0052294074279304
1.0052227031132437
1.0052293940587931
1.005228866603272
1.0052293933608303
1.0052293628711102
1.0052293933362371
1.005229390670205
1.0052293933362371
1.0052293628711102
1.0052293933608303
1.005228866603272
1.0052293940587931
1.0052227031132437
1.0052294074279304
1.0051697027219706
1.005229567645967
1.0048745330666082
1.0052305150175989
1.0038925625300894
1.0052316507714762
1.0020001055158521
1.0052244131334098
1.0000453978687025
1.0000845589265095
1.0000870271203626
1.0000845500401632
1.0000858729006574
1.0000845497411628
1.0000849769738938
1.0000845505895175
1.0000846352101531
1.0000845507758482
1.0000845616713749
1.0000845507935134
1.0000845517623953
1.0000845507944522
1.0000845508570633
1.0000845507944807
1.0000845508005578
1.0000845507944807
1.0000845508570633
1.0000845507944522
1.0000845517623953
1.0000845507935134
1.0000845616713749
1.0000845507758482
1.0000846352101531
1.0000845505895175
1.0000849769738938
1.0000845497411628
1.0000858729006574
1.0000845500401632
1.0000870271203626
1.0000845589265095
1.0000848110417238
1.0042727005797494
1.0020429037801359
1.0042755714130021
1.0034572601273914
1.0042754664000932
1.0040907034078697
1.0042752444019254
1.004248735997562
1.0042752103958468
1.0042726447556292
1.0042752079154407
1.0042750313730013
1.004275207804818
1.0042751987972527
1.004275207801764
1.0042752071012169
1.004275207801764
1.0042751987972527
1.004275207804818
1.0042750313730013
1.0042752079154407
1.0042726447556292
1.0042752103958468
1.004248735997562
1.0042752444019254
1.0040907034078697
1.0042754664000932
1.0034572601273914
1.0042755714130021
1.0020429037801359
1.0042727005797494
1.0001584362191025
1.0002882790797039
1.0002931221378397
1.0002882801032897
1.0002902421878141
1.000288279733301
1.0002887892296923
1.0002882797351547
1.0002883641398208
1.0002882797458621
1.0002882891403819
1.0002882797469121
1.0002882804885436
1.0002882797469452
1.0002882797904327
1.0002882797469446
1.0002882797508494
1.0002882797469446
1.0002882797904327
1.0002882797469452
1.0002882804885436
1.0002882797469121
1.0002882891403819
1.0002882797458621
1.0002883641398208
1.0002882797351547
1.0002887892296923
1.000288279733301
1.0002902421878141
1.0002882801032897
1.0002931221378397
1.0002882790797039
1.0002959571135133
1.0024051777210399
1.0015149331884874
1.0024057664604267
1.0021375983944036
1.0024057946022165
1.0023562427086652
1.0024057745686246
1.0023998460520869
1.002405771613585
1.0024052843549358
1.0024057714224908
1.0024057425625237
1.0024057714157011
1.0024057701372866
1.0024057714156114
1.0024057713288561
1.0024057714156114
1.0024057701372866
1.0024057714157011
1.0024057425625237
1.0024057714224908
1.0024052843549358
1.002405771613585
1.0023998460520869
1.0024057745686246
1.0023562427086652
1.0024057946022165
1.0021375983944036
1.0024057664604267
1.0015149331884874
1.0024051777210399
1.0005527786369237
1.0009839272314021
1.0010091641114867
1.0009839281674253
1.0009921513414897
1.0009839281485304
1.0009856714935443
1.000983928119529
1.0009841759963989
1.0009839281159139
1.0009839528711726
1.0009839281156441
1.0009839299283918
1.0009839281156274
1.0009839282166533
1.000983928115627
1.0009839281244099
1.000983928115627
1.0009839282166533
1.0009839281156274
1.0009839299283918
1.0009839281156441
1.0009839528711726
1.0009839281159139
1.0009841759963989
1.000983928119529
1.0009856714935443
1.0009839281485304
1.0009921513414897
1.0009839281674253
1.0010091641114867
1.0009839272314021
1.001032231036755
1.0023392293184397
1.002176008931406
1.0023392984130413
1.0023018451465879
1.0023393047330826
1.0023343485594987
1.0023393039089818
1.0023389224865
1.0023393037718036
1.0023392891478462
1.0023393037641837
1.0023393039309401
1.0023393037640411
1.0023393038232122
1.0023393037640487
1.0023393037723218
1.0023393037640487
1.0023393038232122
1.0023393037640411
1.0023393039309401
1.0023393037641837
1.0023392891478462
1.0023393037718036
1.0023389224865
1.0023393039089818
1.0023343485594987
1.0023393047330826
1.0023018451465879
1.0023392984130413
1.002176008931406
1.0023392293184397
1.0019267346633276
1.0034419759222286
1.0035220673864949
1.0034419806984867
1.003468044382692
1.0034419808448267
1.0034474912009987
1.003441980651995
1.0034427627140976
1.0034419806223036
1.0034420586604533
1.0034419806201196
1.0034419863325992
1.003441980620015
1.0034419809382888
1.0034419806200099
1.0034419806476667
1.0034419806200099
1.0034419809382888
1.003441980620015
1.0034419863325992
1.0034419806201196
1.0034420586604533
1.0034419806223036
1.0034427627140976
1.003441980651995
1.0034474912009987
1.0034419808448267
1.003468044382692
1.0034419806984867
1.0035220673864949
1.0034419759222286
1.0035936025814203
1.0065261616557943
1.0066301810556002
1.0065261784889894
1.0065639934441277
1.006526179268197
1.0065347793250754
1.0065261787097308
1.0065274543811829
1.0065261786215407
1.0065263093432497
1.006526178615117
1.006526188339804
1.006526178614813
1.0065261791619797
1.0065261786148032
1.0065261786626272
1.0065261786148032
1.0065261791619797
1.006526178614813
1.006526188339804
1.006526178615117
1.0065263093432497
1.0065261786215407
1.0065274543811829
1.0065261787097308
1.0065347793250754
1.006526179268197
1.0065639934441277
1.0065261784889894
1.0066301810556002
1.0065261616557943
1.006692850924285
1.0120379731496048
1.0122551639481945
1.0120380036820369
1.012110534947672
1.0120380035175451
1.0120536672450318
1.0120380018822765
1.0120402582087049
1.0120380016384964
1.0120382289591281
1.0120380016204862
1.0120380183564825
1.0120380016195967
1.0120380025547944
1.0120380016195631
1.0120380017008983
1.0120380016195631
1.0120380025547944
1.0120380016195967
1.0120380183564825
1.0120380016204862
1.0120382289591281
1.0120380016384964
1.0120402582087049
1.0120380018822765
1.0120536672450318
1.0120380035175451
1.012110534947672
1.0120380036820369
1.0122551639481945
1.0120379731496048
1.0124316508531859
1.0223880678364767
1.022724416494651
1.0223881386711604
1.0225023438810794
1.0223881364178908
1.0224131055027201
1.0223881320512593
1.0223917554360211
1.0223881314135819
1.0223884978053193
1.0223881313665057
1.0223881583703545
1.0223881313641656
1.0223881328719768
1.0223881313640786
1.0223881314949432
1.0223881313640786
1.0223881328719768
1.0223881313641656
1.0223881583703545
1.0223881313665057
1.0223884978053193
1.0223881314135819
1.0223917554360211
1.0223881320512593
1.0224131055027201
1.0223881364178908
1.0225023438810794
1.0223881386711604
1.022724416494651
1.0223880678364767
1.0229773699100257
1.0412112376641207
1.0417223241683946
1.0412113919957917
1.0413858380731003
1.0412113817373903
1.041249691299909
1.0412113708284847
1.0412169376557354
1.0412113692796592
1.0412119313192723
1.0412113691659826
1.0412114104311061
1.0412113691603182
1.0412113714515672
1.0412113691601033
1.0412113693575946
1.0412113691601033
1.0412113714515672
1.0412113691603182
1.0412114104311061
1.0412113691659826
1.0412119313192723
1.0412113692796592
1.0412169376557354
1.0412113708284847
1.041249691299909
1.0412113817373903
1.0413858380731003
1.0412113919957917
1.0417223241683946
1.0412112376641207
1.0420877279156189
1.0746117921174738
1.0753550630644217
1.0746121085174407
1.0748667736700335
1.0746120741773171
1.0746680510295963
1.0746120489839142
1.0746201504309307
1.0746120455329429
1.0746128568795572
1.0746120452828412
1.074612104193172
1.0746120452704142
1.0746120484977697
1.0746120452699437
1.0746120455439605
1.0746120452699437
1.0746120484977697
1.0746120452704142
1.074612104193172
1.0746120452828412
1.0746128568795572
1.0746120455329429
1.0746201504309307
1.0746120489839142
1.0746680510295963
1.0746120741773171
1.0748667736700335
1.0746121085174407
1.0753550630644217
1.0746117921174738
1.0758581800212434
1.1312169369424547
1.1322627467498874
1.1312175429688527
1.1315748415358329
1.1312174462177373
1.1312954090752909
1.1312173927341282
1.1312285209346975
1.1312173857492793
1.1312184791602231
1.131217385254824
1.1312174628418568
1.1312173852305867
1.131217389371783
1.1312173852296783
1.1312173855714649
1.1312173852296783
1.131217389371783
1.1312173852305867
1.1312174628418568
1.131217385254824
1.1312184791602231
1.1312173857492793
1.1312285209346975
1.1312173927341282
1.1312954090752909
1.1312174462177373
1.1315748415358329
1.1312175429688527
1.1322627467498874
1.1312169369424547
1.1329642401978293
1.2202553881334242
1.2216723206989539
1.2202564510265732
1.2207368229599891
1.2202562164225632
1.2203593442280445
1.2202561136889283
1.2202704580086492
1.2202561010685364
1.2202574642037776
1.2202561002077181
1.2202561932173366
1.2202561001666477
1.2202561049175391
1.220256100165142
1.2202561005390464
1.220256100165142
1.2202561049175391
1.2202561001666477
1.2202561932173366
1.2202561002077181
1.2202574642037776
1.2202561010685364
1.2202704580086492
1.2202561136889283
1.2203593442280445
1.2202562164225632
1.2207368229599891
1.2202564510265732
1.2216723206989539
1.2202553881334242
1.2227001388253087
1.3452354445721419
1.347061407016735
1.3452371038454147
1.3458510600020759
1.3452366165813376
1.3453652486442507
1.3452364415710052
1.3452536396146031
1.3452364216282855
1.345237974799109
1.3452364203410232
1.3452365202059271
1.3452364202825071
1.3452364250578062
1.3452364202804636
1.3452364206306691
1.3452364202804636
1.3452364250578062
1.3452364202825071
1.3452365202059271
1.3452364203410232
1.345237974799109
1.3452364216282855
1.3452536396146031
1.3452364415710052
1.3453652486442507
1.3452366165813376
1.3458510600020759
1.3452371038454147
1.347061407016735
1.3452354445721419
1.3486451353339457
1.4953987758436524
1.4976080574151605
1.4954010353646783
1.496136968507181
1.4954001997078996
1.4955488643033883
1.495399947264771
1.4954187290614436
1.4953999211226574
1.4954015031644412
1.4953999195678587
1.4954000136394816
1.4953999195024568
1.4953999236380926
1.495399919500346
1.495399919778214
1.495399919500346
1.4953999236380926
1.4953999195024568
1.4954000136394816
1.4953999195678587
1.4954015031644412
1.4953999211226574
1.4954187290614436
1.495399947264771
1.4955488643033883
1.4954001997078996
1.496136968507181
1.4954010353646783
1.4976080574151605
1.4953987758436524
1.5
1.6456514666217925
1.6481300382192405
1.6456540465523006
1.6464607658527348
1.6456529565150517
1.6458072568293203
1.6456526722153002
1.645670818500387
1.6456526458220351
1.645654056140736
1.6456526443981676
1.6456527213985885
1.6456526443434885
1.6456526474425193
1.6456526443418726
1.6456526445322326
1.6456526443418726
1.6456526474425193
1.6456526443434885
1.6456527213985885
1.6456526443981676
1.645654056140736
1.6456526458220351
1.645670818500387
1.6456526722153002
1.6458072568293203
1.6456529565150517
1.6464607658527348
1.6456540465523006
1.6481300382192405
1.6456514666217925
1.6513548646660543
1.7710797788288546
1.7736123780480759
1.7710821729207582
1.771869421521582
1.7710811401411801
1.7712217788436264
1.7710808993560663
1.771096232372082
1.7710808791638124
1.7710819812107921
1.7710808781686191
1.7710809337687186
1.7710808781334246
1.7710808802004827
1.7710808781324643
1.7710808782497631
1.7710808781324643
1.7710808802004827
1.7710808781334246
1.7710809337687186
1.7710808781686191
1.7710819812107921
1.7710808791638124
1.771096232372082
1.7710808993560663
1.7712217788436264
1.7710811401411801
1.771869421521582
1.7710821729207582
1.7736123780480759
1.7710797788288546
1.7772998611746911
1.8611307020421932
1.8634517184319561
1.8611325322281251
1.8618105245546708
1.861131800672301
1.8612446654768819
1.861131642743586
1.86114312191042
1.8611316305480723
1.8611324020724875
1.8611316299893357
1.8611316664619573
1.8611316299708498
1.8611316312431243
1.8611316299703753
1.8611316300381875
1.8611316299703753
1.8611316312431243
1.8611316299708498
1.8611316664619573
1.8611316299893357
1.8611324020724875
1.8611316305480723
1.86114312191042
1.861131642743586
1.8612446654768819
1.861131800672301
1.8618105245546708
1.8611325322281251
1.8634517184319561
1.8611307020421932
1.8670357598021707
1.9191993733549864
1.9211009462992048
1.9192005529854304
1.9197209708842462
1.9192001427828957
1.9192814197712176
1.9192000584389257
1.9192078602493192
1.9192000523221586
1.9192005496786884
1.9192000520571233
1.9192000744372073
1.9192000520487886
1.9192000527936972
1.9192000520485848
1.9192000520865375
1.9192000520485848
1.9192000527936972
1.9192000520487886
1.9192000744372073
1.9192000520571233
1.9192005496786884
1.9192000523221586
1.9192078602493192
1.9192000584389257
1.9192814197712176
1.9192001427828957
1.9197209708842462
1.9192005529854304
1.9211009462992048
1.9191993733549864
1.9241418199787566
1.9541880304251464
1.9555950999957419
1.9541886830478141
1.9545516357781254
1.9541884912554728
1.9542422505916335
1.9541884528751534
1.9541933854039517
1.9541884502166342
1.9541887525405839
1.9541884501060816
1.9541884632393851
1.954188450102736
1.9541884505259468
1.9541884501026581
1.9541884501235767
1.9541884501026581
1.9541884505259468
1.954188450102736
1.9541884632393851
1.9541884501060816
1.9541887525405839
1.9541884502166342
1.9541933854039517
1.9541884528751534
1.9542422505916335
1.9541884912554728
1.9545516357781254
1.9541886830478141
1.9555950999957419
1.9541880304251464
1.9579122720843811
1.9744644122504638
1.9754162390296646
1.9744647279681697
1.9746989528391639
1.9744646501088174
1.9744979665252846
1.9744646346776142
1.9744675918745
1.974464633642377
1.9744648099394662
1.974464633600578
1.9744646410781401
1.974464633599347
1.9744646338352398
1.9744646335993195
1.9744646336107563
1.9744646335993195
1.9744646338352398
1.974464633599347
1.9744646410781401
1.974464633600578
1.9744648099394662
1.974464633642377
1.9744675918745
1.9744646346776142
1.9744979665252846
1.9744646501088174
1.9746989528391639
1.9744647279681697
1.9754162390296646
1.9744644122504638
1.9770226300899743
1.9859045697142403
1.9865121356407722
1.9859047061897857
1.9860481848318547
1.9859046776494642
1.9859244354178311
1.9859046719923426
1.9859063827447472
1.9859046716213642
1.9859047716307394
1.9859046716067026
1.9859046757808039
1.9859046716062805
1.9859046717361639
1.98590467160627
1.9859046716124928
1.98590467160627
1.9859046717361639
1.9859046716062805
1.9859046757808039
1.9859046716067026
1.9859047716307394
1.9859046716213642
1.9859063827447472
1.9859046719923426
1.9859244354178311
1.9859046776494642
1.9860481848318547
1.9859047061897857
1.9865121356407722
1.9859045697142403
1.9875683491468141
1.992466188470793
1.9927814800421315
1.9924662470689811
1.9925426083508584
1.9924662381239144
1.9924768737239087
1.9924662362028693
1.9924671604884914
1.9924662360754786
1.9924662901028909
1.9924662360704521
1.9924662383209948
1.9924662360703065
1.9924662361401368
1.9924662360703036
1.9924662360736392
1.9924662360703036
1.9924662361401368
1.9924662360703065
1.9924662383209948
1.9924662360704521
1.9924662901028909
1.9924662360754786
1.9924671604884914
1.9924662362028693
1.9924768737239087
1.9924662381239144
1.9925426083508584
1.9924662470689811
1.9927814800421315
1.992466188470793
1.993307149075715
1.995803830378325
1.9960189653608329
1.9958038497576849
1.9958520853674071
1.9958038466587997
1.9958102306186039
1.9958038460360636
1.9958043828986034
1.995803845996422
1.9958038766975417
1.9958038459949037
1.9958038472543858
1.9958038459948606
1.9958038460335075
1.9958038459948595
1.9958038459966891
1.9958038459948595
1.9958038460335075
1.9958038459948606
1.9958038472543858
1.9958038459949037
1.9958038766975417
1.995803845996422
1.9958043828986034
1.9958038460360636
1.9958102306186039
1.9958038466587997
1.9958520853674071
1.9958038497576849
1.9960189653608329
1.995803830378325
1.9964063974185799
1.9988304345448265
1.99856669265183
1.9988305474911949
1.9987863979560923
1.9988305429478517
1.9988265157380565
1.9988305409687384
1.998830323952427
1.9988305408168017
1.9988305337856473
1.9988305408102141
1.9988305406925575
1.9988305408100189
1.9988305408105074
1.9988305408100144
1.9988305408101914
1.9988305408100144
1.9988305408105074
1.9988305408100189
1.9988305406925575
1.9988305408102141
1.9988305337856473
1.9988305408168017
1.998830323952427
1.9988305409687384
1.9988265157380565
1.9988305429478517
1.9987863979560923
1.9988305474911949
1.99856669265183
1.9988304345448265
1.9980732653366724
1.9987698543338857
1.9988431015959995
1.9987698554038367
1.9987863151684582
1.9987698553912281
1.9987720281522796
1.998769855425613
1.9987700371132096
1.9987698554305409
1.9987698657468769
1.9987698554308388
1.998769855850834
1.9987698554308495
1.9987698554436395
1.9987698554308495
1.998769855431451
1.9987698554308495
1.9987698554436395
1.9987698554308495
1.998769855850834
1.9987698554308388
1.9987698657468769
1.9987698554305409
1.9987700371132096
1.998769855425613
1.9987720281522796
1.9987698553912281
1.9987863151684582
1.9987698554038367
1.9988431015959995
1.9987698543338857
1.9989677689632452
2.0029266043208569
2.0014217614686016
2.0029275718878834
2.0025741861327053
2.002927399289991
2.0028809841219171
2.0029273601250304
2.0029235966839267
2.0029273573667883
2.0029271528354364
2.0029273572503525
2.0029273493334174
2.0029273572468247
2.0029273570184181
2.0029273572467434
2.0029273572365915
2.0029273572467434
2.0029273570184181
2.0029273572468247
2.0029273493334174
2.0029273572503525
2.0029271528354364
2.0029273573667883
2.0029235966839267
2.0029273601250304
2.0028809841219171
2.002927399289991
2.0025741861327053
2.0029275718878834
2.0014217614686016
2.0029266043208569
1.9994472213630763
1.9996547769989113
1.9996805506103803
1.999654771172984
1.9996622210601318
1.9996547739415331
1.9996559733446626
1.9996547747214646
1.9996548913384968
1.9996547747947702
1.9996547822312079
1.9996547747986262
1.9996547751303244
1.9996547747987621
1.9996547748096327
1.9996547747987665
1.9996547747993081
1.9996547747987665
1.9996547748096327
1.9996547747987621
1.9996547751303244
1.9996547747986262
1.9996547822312079
1.9996547747947702
1.9996548913384968
1.9996547747214646
1.9996559733446626
1.9996547739415331
1.9996622210601318
1.999654771172984
1.9996805506103803
1.9996547769989113
1.999704042886487
2.005839312343265
2.0029646561288028
2.0058426776156626
2.0049921854991193
2.0058410027947078
2.0057020488605124
2.0058406819329155
2.0058270806556924
2.0058406585415582
2.0058397882221755
2.0058406575197076
2.0058406186079187
2.0058406574876049
2.0058406562097746
2.0058406574868304
2.0058406574229437
2.0058406574868304
2.0058406562097746
2.0058406574876049
2.0058406186079187
2.0058406575197076
2.0058397882221755
2.0058406585415582
2.0058270806556924
2.0058406819329155
2.0057020488605124
2.0058410027947078
2.0049921854991193
2.0058426776156626
2.0029646561288028
2.005839312343265
1.9998415637808975
1.9999151889582765
1.9999151889582765
1.9999151889582765
1.9999151889582765
1.9999151889582765
1.9999151889582765
1.9999151889582765
1.9999151889582765
1.9999151889582765
1.9999151889582765
1.9999151889582765
1.9999151889582765
1.9999151889582765
1.9999151889582765
1.9999151889582765
1.9999151889582765
1.9999151889582765
1.9999151889582765
1.9999151889582765
1.9999151889582765
1.9999151889582765
1.9999151889582765
1.9999151889582765
1.9999151889582765
1.9999151889582765
1.9999151889582765
1.9999151889582765
1.9999151889582765
1.9999151889582765
1.9999151889582765
1.9999151889582765
1.9999151889582765
1.0045347683506558
1.0024935338687884
1.0045427770365953
1.0034784048236183
1.0045408463170635
1.0041762346836538
1.0045393846866162
1.004462864767117
1.0045390704027304
1.0045286703280953
1.0045390356617148
1.0045380596629656
1.0045390331699176
1.0045389664363056
1.0045390330395558
1.0045390261686256
1.0045390330395558
1.0045389664363056
1.0045390331699176
1.0045380596629656
1.0045390356617148
1.0045286703280953
1.0045390704027304
1.004462864767117
1.0045393846866162
1.0041762346836538
1.0045408463170635
1.0034784048236183
1.0045427770365953
1.0024935338687884
1.0045347683506558
1.0000453978687025
1.0000848669475488
1.0000859122334682
1.0000848582204129
1.0000853309339517
1.0000848571718597
1.0000850251724476
1.0000848581217192
1.0000849045054816
1.0000848584166326
1.0000848666980606
1.0000848584566033
1.000084859426577
1.0000848584599047
1.0000848585390154
1.0000848584600965
1.0000848584694659
1.0000848584600965
1.0000848585390154
1.0000848584599047
1.000084859426577
1.0000848584566033
1.0000848666980606
1.0000848584166326
1.0000849045054816
1.0000848581217192
1.0000850251724476
1.0000848571718597
1.0000853309339517
1.0000848582204129
1.0000859122334682
1.0000848669475488
1.0000848110417238
1.0027986259203057
1.0011368963234546
1.0028020719714064
1.0020224085168643
1.0028018569049417
1.0025791103548414
1.0028014379525221
1.0027621630629686
1.0028013531978477
1.0027967778182538
1.0028013446972446
1.0028009701003484
1.0028013441362316
1.0028013214844167
1.0028013441089356
1.0028013420210755
1.0028013441089356
1.0028013214844167
1.0028013441362316
1.0028009701003484
1.0028013446972446
1.0027967778182538
1.0028013531978477
1.0027621630629686
1.0028014379525221
1.0025791103548414
1.0028018569049417
1.0020224085168643
1.0028020719714064
1.0011368963234546
1.0027986259203057
1.0001584362191025
1.0002955649973093
1.0002963927449882
1.0002955709480708
1.0002960833671373
1.0002955697950511
1.0002957972413329
1.0002955694284796
1.0002956257769768
1.0002955694007782
1.0002955778190781
1.0002955694008353
1.0002955702340521
1.0002955694009885
1.0002955694596396
1.0002955694010021
1.0002955694071332
1.0002955694010021
1.0002955694596396
1.0002955694009885
1.0002955702340521
1.0002955694008353
1.0002955778190781
1.0002955694007782
1.0002956257769768
1.0002955694284796
1.0002957972413329
1.0002955697950511
1.0002960833671373
1.0002955709480708
1.0002963927449882
1.0002955649973093
1.0002959571135133
1.0021049272692457
1.0012356418160835
1.0021057459569453
1.0017834796507787
1.0021057744673061
1.0020329011367559
1.0021057215063667
1.0020952092871203
1.0021057111657012
1.0021046796129538
1.0021057101852633
1.002105637476399
1.0021057101238973
1.0021057062781542
1.0021057101210751
1.0021057098069104
1.0021057101210751
1.0021057062781542
1.0021057101238973
1.002105637476399
1.0021057101852633
1.0021046796129538
1.0021057111657012
1.0020952092871203
1.0021057215063667
1.0020329011367559
1.0021057744673061
1.0017834796507787
1.0021057459569453
1.0012356418160835
1.0021049272692457
1.0005527786369237
1.000993766688159
1.0010156860945938
1.0009937692625364
1.0010019245189659
1.0009937691862947
1.0009957747115528
1.0009937690726556
1.0009940968479285
1.000993769056955
1.0009938061308974
1.0009937690558564
1.0009937720868765
1.0009937690558077
1.0009937692421036
1.0009937690558073
1.0009937690734658
1.0009937690558073
1.0009937692421036
1.0009937690558077
1.0009937720868765
1.0009937690558564
1.0009938061308974
1.000993769056955
1.0009940968479285
1.0009937690726556
1.0009957747115528
1.0009937691862947
1.0010019245189659
1.0009937692625364
1.0010156860945938
1.000993766688159
1.001032231036755
1.0023934463023709
1.0021771374940209
1.0023935650035247
1.0023319942636846
1.0023935755156952
1.0023831011487621
1.0023935719226913
1.0023924540002993
1.002393571166615
1.0023934935134362
1.0023935710956089
1.0023935676150406
1.0023935710913097
1.0023935710054841
1.0023935710911216
1.0023935710918699
1.0023935710911216
1.0023935710054841
1.0023935710913097
1.0023935676150406
1.0023935710956089
1.0023934935134362
1.002393571166615
1.0023924540002993
1.0023935719226913
1.0023831011487621
1.0023935755156952
1.0023319942636846
1.0023935650035247
1.0021771374940209
1.0023934463023709
1.0019267346633276
1.0034682275838254
1.003540621109748
1.0034682343049581
1.0034951142027824
1.003468234328023
1.0034747822106933
1.0034682339317458
1.0034692942056875
1.0034682338614367
1.0034683529574839
1.0034682338552148
1.0034682435457867
1.003468233854846
1.0034682344485646
1.0034682338548289
1.0034682339109908
1.0034682338548289
1.0034682344485646
1.003468233854846
1.0034682435457867
1.0034682338552148
1.0034683529574839
1.0034682338614367
1.0034692942056875
1.0034682339317458
1.0034747822106933
1.003468234328023
1.0034951142027824
1.0034682343049581
1.003540621109748
1.0034682275838254
1.0035936025814203
1.0066056543416837
1.0066770502407072
1.0066056803710226
1.0066386124851758
1.0066056814341868
1.0066148764104004
1.0066056802537022
1.0066072913762449
1.0066056800296546
1.0066058695945375
1.0066056800093226
1.0066056958748677
1.006605680008108
1.0066056809974531
1.0066056800080532
1.006605680102687
1.0066056800080532
1.0066056809974531
1.006605680008108
1.0066056958748677
1.0066056800093226
1.0066058695945375
1.0066056800296546
1.0066072913762449
1.0066056802537022
1.0066148764104004
1.0066056814341868
1.0066386124851758
1.0066056803710226
1.0066770502407072
1.0066056543416837
1.006692850924285
1.0121363916544133
1.0123168361839627
1.0121364285614263
1.012206167915898
1.0121364268505721
1.0121540093002215
1.0121364239547777
1.0121393401140744
1.0121364234539312
1.0121367561767862
1.0121364234095616
1.0121364507478583
1.0121364234069157
1.0121364250913945
1.0121364234067984
1.0121364235665786
1.0121364234067984
1.0121364250913945
1.0121364234069157
1.0121364507478583
1.0121364234095616
1.0121367561767862
1.0121364234539312
1.0121393401140744
1.0121364239547777
1.0121540093002215
1.0121364268505721
1.012206167915898
1.0121364285614263
1.0123168361839627
1.0121363916544133
1.0124316508531859
1.0225702432155788
1.0228310487992265
1.0225703230975676
1.0226742621720577
1.0225703167067086
1.0225971480242475
1.0225703095909298
1.0225748237780323
1.0225703083816868
1.0225708273689482
1.0225703082749662
1.022570351055144
1.0225703082686111
1.022570310905299
1.0225703082683275
1.0225703085180058
1.0225703082683275
1.022570310905299
1.0225703082686111
1.022570351055144
1.0225703082749662
1.0225708273689482
1.0225703083816868
1.0225748237780323
1.0225703095909298
1.0225971480242475
1.0225703167067086
1.0226742621720577
1.0225703230975676
1.0228310487992265
1.0225702432155788
1.0229773699100257
1.0415049208110194
1.0418806981272504
1.0415050807168227
1.0416560583217394
1.0415050605677356
1.0415444295600471
1.0415050443477198
1.0415117028929666
1.0415050416647924
1.0415058075493278
1.0415050414302756
1.0415051043613179
1.0415050414163902
1.0415050452722197
1.0415050414157694
1.0415050417780545
1.0415050414157694
1.0415050452722197
1.0415050414163902
1.0415051043613179
1.0415050414302756
1.0415058075493278
1.0415050416647924
1.0415117028929666
1.0415050443477198
1.0415444295600471
1.0415050605677356
1.0416560583217394
1.0415050807168227
1.0418806981272504
1.0415049208110194
1.0420877279156189
1.0750611211067926
1.0755695850786251
1.0750614197735948
1.0752681567111237
1.0750613662912429
1.0751157946381842
1.0750613324874227
1.0750705438984882
1.0750613270788392
1.0750623797009047
1.0750613266135565
1.0750614121132449
1.075061326586346
1.0750613317464537
1.0750613265851479
1.0750613270615712
1.0750613265851479
1.0750613317464537
1.075061326586346
1.0750614121132449
1.0750613266135565
1.0750623797009047
1.0750613270788392
1.0750705438984882
1.0750613324874227
1.0751157946381842
1.0750613662912429
1.0752681567111237
1.0750614197735948
1.0755695850786251
1.0750611211067926
1.0758581800212434
1.1318425680263697
1.1325039155609327
1.131843078752178
1.132113289815563
1.131842955282979
1.1319140992199959
1.1318428915453977
1.1318547981968479
1.1318428817939008
1.1318442158107049
1.1318428809776235
1.1318429865757231
1.1318428809309806
1.1318428871139361
1.1318428809289689
1.1318428814810868
1.1318428809289689
1.1318428871139361
1.1318428809309806
1.1318429865757231
1.1318428809776235
1.1318442158107049
1.1318428817939008
1.1318547981968479
1.1318428915453977
1.1319140992199959
1.131842955282979
1.132113289815563
1.131843078752178
1.1325039155609327
1.1318425680263697
1.1329642401978293
1.2210556474838272
1.2218746665211715
1.2210564252672911
1.2213919336322323
1.2210561808907392
1.2211436353860994
1.2210560744311476
1.2210703306726551
1.2210560590407611
1.2210575965223696
1.2210560578054359
1.2210561739847623
1.2210560577375775
1.2210560641912558
1.2210560577347722
1.2210560582792815
1.2210560577347722
1.2210560641912558
1.2210560577375775
1.2210561739847623
1.2210560578054359
1.2210575965223696
1.2210560590407611
1.2210703306726551
1.2210560744311476
1.2211436353860994
1.2210561808907392
1.2213919336322323
1.2210564252672911
1.2218746665211715
1.2210556474838272
1.2227001388253087
1.3462225761130151
1.3471794957335042
1.3462236100005152
1.3466182913482672
1.3462232041900419
1.3463236355887735
1.3462230507058925
1.3462386398982427
1.3462230301274787
1.3462246069206121
1.3462230285836259
1.3462231392987591
1.3462230285043584
1.3462230341843524
1.3462230285013068
1.34622302894242
1.3462230285013068
1.3462230341843524
1.3462230285043584
1.3462231392987591
1.3462230285836259
1.3462246069206121
1.3462230301274787
1.3462386398982427
1.3462230507058925
1.3463236355887735
1.3462232041900419
1.3466182913482672
1.3462236100005152
1.3471794957335042
1.3462225761130151
1.3486451353339457
1.496685418814246
1.4977491200247024
1.4966865955437756
1.497123520989271
1.4966860620573759
1.4967912939286323
1.4966858839505786
1.4967009665884035
1.4966858623994688
1.4966872557376243
1.4966858609312255
1.4966859498361773
1.4966858608625548
1.4966858649969079
1.4966858608601472
1.496685861151057
1.4966858608601472
1.4966858649969079
1.4966858608625548
1.4966859498361773
1.4966858609312255
1.4966872557376243
1.4966858623994688
1.4967009665884035
1.4966858839505786
1.4967912939286323
1.4966860620573759
1.497123520989271
1.4966865955437756
1.4977491200247024
1.496685418814246
1.5
1.6474306858885628
1.648556583480707
1.6474317823759046
1.6478722190824604
1.6474312737977275
1.6475280629449427
1.6474311210453187
1.6474436555957215
1.64743110450784
1.6474321496296396