# vtk DataFile Version 3.0
Euler density step 82
ASCII
DATASET STRUCTURED_POINTS
DIMENSIONS 32 32 32
ORIGIN 0 0 0
SPACING 0.3125 0.3125 0.3125
POINT_DATA 32768
SCALARS density double 1
LOOKUP_TABLE default
1.0007991316991907
1.0007112360706902
1.0007991374841445
1.000795473299698
1.0007991359161101
1.0007990563470068
1.0007991358933053
1.0007991348680079
1.000799135893125
1.0007991358845947
1.0007991358931241
1.0007991358930761
1.0007991358931241
1.0007991358931241
1.0007991358931241
1.0007991358931241
1.0007991358931241
1.0007991358931241
1.0007991358931241
1.0007991358930761
1.0007991358931241
1.0007991358845947
1.000799135893125
1.0007991348680079
1.0007991358933053
1.0007990563470068
1.0007991359161101
1.000795473299698
1.0007991374841445
1.0007112360706902
1.0007991316991907
1.0000453978687025
1.0000850650844355
1.0000850787954105
1.0000850650844293
1.0000850664053307
1.0000850650846296
1.0000850651241091
1.0000850650846351
1.0000850650852477
1.0000850650846351
1.0000850650846413
1.0000850650846351
1.0000850650846353
1.0000850650846351
1.0000850650846351
1.0000850650846351
1.0000850650846351
1.0000850650846351
1.0000850650846351
1.0000850650846351
1.0000850650846353
1.0000850650846351
1.0000850650846413
1.0000850650846351
1.0000850650852477
1.0000850650846351
1.0000850651241091
1.0000850650846296
1.0000850664053307
1.0000850650844293
1.0000850787954105
1.0000850650844355
1.0000848110417238
1.0002497556086378
1.0002425445423204
1.0002497561149488
1.0002495230056183
1.0002497560991284
1.0002497520991882
1.0002497560988239
1.0002497560572405
1.0002497560988208
1.0002497560985375
1.0002497560988208
1.0002497560988195
1.0002497560988208
1.0002497560988208
1.0002497560988208
1.0002497560988208
1.0002497560988208
1.0002497560988208
1.0002497560988208
1.0002497560988195
1.0002497560988208
1.0002497560985375
1.0002497560988208
1.0002497560572405
1.0002497560988239
1.0002497520991882
1.0002497560991284
1.0002495230056183
1.0002497561149488
1.0002425445423204
1.0002497556086378
1.0001584362191025
1.0002957609462295
1.0002958065123422
1.0002957609461796
1.000295762954823
1.000295760946182
1.0002957609919532
1.0002957609461822
1.0002957609468015
1.0002957609461822
1.0002957609461887
1.0002957609461822
1.0002957609461822
1.0002957609461822
1.0002957609461822
1.0002957609461822
1.0002957609461822
1.0002957609461822
1.0002957609461822
1.0002957609461822
1.0002957609461822
1.0002957609461822
1.0002957609461887
1.0002957609461822
1.0002957609468015
1.0002957609461822
1.0002957609919532
1.000295760946182
1.000295762954823
1.0002957609461796
1.0002958065123422
1.0002957609462295
1.0002959571135133
1.000556217612651
1.0005560614199465
1.0005562176193601
1.0005562150516683
1.0005562176192875
1.0005562176141971
1.0005562176192857
1.0005562176196297
1.0005562176192857
1.0005562176192906
1.0005562176192857
1.0005562176192857
1.0005562176192857
1.0005562176192857
1.0005562176192857
1.0005562176192857
1.0005562176192857
1.0005562176192857
1.0005562176192857
1.0005562176192857
1.0005562176192857
1.0005562176192906
1.0005562176192857
1.0005562176196297
1.0005562176192857
1.0005562176141971
1.0005562176192875
1.0005562150516683
1.0005562176193601
1.0005560614199465
1.000556217612651
1.0005527786369237
1.0010315241043493
1.0010316701847712
1.0010315241043712
1.0010315304101305
1.0010315241043677
1.0010315242466352
1.0010315241043677
1.001031524106281
1.0010315241043677
1.0010315241043837
1.0010315241043677
1.0010315241043677
1.0010315241043677
1.0010315241043677
1.0010315241043677
1.0010315241043677
1.0010315241043677
1.0010315241043677
1.0010315241043677
1.0010315241043677
1.0010315241043677
1.0010315241043837
1.0010315241043677
1.001031524106281
1.0010315241043677
1.0010315242466352
1.0010315241043677
1.0010315304101305
1.0010315241043712
1.0010316701847712
1.0010315241043493
1.001032231036755
1.0019254941523339
1.0019257589745356
1.0019254941524667
1.0019255056411769
1.0019254941524514
1.0019254944119356
1.0019254941524511
1.0019254941559399
1.0019254941524511
1.0019254941524809
1.0019254941524511
1.0019254941524514
1.0019254941524511
1.0019254941524511
1.0019254941524511
1.0019254941524511
1.0019254941524511
1.0019254941524511
1.0019254941524511
1.0019254941524514
1.0019254941524511
1.0019254941524809
1.0019254941524511
1.0019254941559399
1.0019254941524511
1.0019254944119356
1.0019254941524514
1.0019255056411769
1.0019254941524667
1.0019257589745356
1.0019254941523339
1.0019267346633276
1.0035911296372499
1.0035916261055746
1.003591129637522
1.0035911509492634
1.0035911296374724
1.0035911301159315
1.0035911296374713
1.003591129643878
1.0035911296374713
1.0035911296375266
1.0035911296374713
1.0035911296374715
1.0035911296374713
1.0035911296374713
1.0035911296374713
1.0035911296374713
1.0035911296374713
1.0035911296374713
1.0035911296374713
1.0035911296374715
1.0035911296374713
1.0035911296375266
1.0035911296374713
1.003591129643878
1.0035911296374713
1.0035911301159315
1.0035911296374724
1.0035911509492634
1.003591129637522
1.0035916261055746
1.0035911296372499
1.0035936025814203
1.0066882350997111
1.0066891501997504
1.0066882351006159
1.0066882742596757
1.0066882351004425
1.0066882359768343
1.0066882351004394
1.0066882351121371
1.0066882351004394
1.0066882351005402
1.0066882351004394
1.0066882351004398
1.0066882351004394
1.0066882351004394
1.0066882351004394
1.0066882351004394
1.0066882351004394
1.0066882351004394
1.0066882351004394
1.0066882351004398
1.0066882351004394
1.0066882351005402
1.0066882351004394
1.0066882351121371
1.0066882351004394
1.0066882359768343
1.0066882351004425
1.0066882742596757
1.0066882351006159
1.0066891501997504
1.0066882350997111
1.006692850924285
1.0124230304863893
1.0124247071585319
1.0124230304892832
1.0124231018772918
1.0124230304887005
1.0124230320782011
1.0124230304886914
1.0124230305097963
1.0124230304886912
1.0124230304888726
1.0124230304886912
1.0124230304886921
1.0124230304886912
1.0124230304886912
1.0124230304886912
1.0124230304886912
1.0124230304886912
1.0124230304886912
1.0124230304886912
1.0124230304886921
1.0124230304886912
1.0124230304888726
1.0124230304886912
1.0124230305097963
1.0124230304886914
1.0124230320782011
1.0124230304887005
1.0124231018772918
1.0124230304892832
1.0124247071585319
1.0124230304863893
1.0124316508531859
1.0229612276879589
1.0229642642913619
1.0229612276967697
1.0229613558597428
1.0229612276948647
1.0229612305227105
1.0229612276948326
1.022961227732031
1.0229612276948326
1.0229612276951499
1.0229612276948326
1.0229612276948341
1.0229612276948326
1.0229612276948326
1.0229612276948326
1.0229612276948326
1.0229612276948326
1.0229612276948326
1.0229612276948326
1.0229612276948341
1.0229612276948326
1.0229612276951499
1.0229612276948326
1.022961227732031
1.0229612276948326
1.0229612305227105
1.0229612276948647
1.0229613558597428
1.0229612276967697
1.0229642642913619
1.0229612276879589
1.0229773699100257
1.0420572555575647
1.0420626523469938
1.0420572555825096
1.0420574798588218
1.0420572555765262
1.0420572604455551
1.04205725557643
1.042057255639411
1.0420572555764291
1.0420572555769563
1.0420572555764291
1.0420572555764323
1.0420572555764291
1.0420572555764291
1.0420572555764291
1.0420572555764291
1.0420572555764291
1.0420572555764291
1.0420572555764291
1.0420572555764323
1.0420572555764291
1.0420572555769563
1.0420572555764291
1.042057255639411
1.04205725557643
1.0420572604455551
1.0420572555765262
1.0420574798588218
1.0420572555825096
1.0420626523469938
1.0420572555575647
1.0420877279156189
1.0757998797209558
1.075809199396325
1.0757998797846511
1.0758002569177427
1.0757998797670481
1.0757998877272505
1.0757998797667778
1.0757998798667656
1.0757998797667758
1.0757998797675887
1.0757998797667758
1.0757998797667796
1.0757998797667758
1.0757998797667758
1.0757998797667758
1.0757998797667758
1.0757998797667758
1.0757998797667758
1.0757998797667758
1.0757998797667796
1.0757998797667758
1.0757998797675887
1.0757998797667758
1.0757998798667656
1.0757998797667778
1.0757998877272505
1.0757998797670481
1.0758002569177427
1.0757998797846511
1.075809199396325
1.0757998797209558
1.0758581800212434
1.1328516398284767
1.1328670637138871
1.1328516399701845
1.1328522375622898
1.1328516399233557
1.1328516519625706
1.1328516399226778
1.1328516400667261
1.1328516399226729
1.1328516399237873
1.1328516399226729
1.132851639922678
1.1328516399226729
1.1328516399226729
1.1328516399226729
1.1328516399226729
1.1328516399226729
1.1328516399226729
1.1328516399226729
1.132851639922678
1.1328516399226729
1.1328516399237873
1.1328516399226729
1.1328516400667261
1.1328516399226778
1.1328516519625706
1.1328516399233557
1.1328522375622898
1.1328516399701845
1.1328670637138871
1.1328516398284767
1.1329642401978293
1.2224869689592941
1.2225109125165599
1.2224869692252733
1.2224878376815671
1.2224869691185618
1.2224869854180167
1.2224869691171489
1.2224869692983307
1.2224869691171376
1.2224869691184397
1.2224869691171376
1.2224869691171443
1.2224869691171376
1.2224869691171376
1.2224869691171376
1.2224869691171376
1.2224869691171376
1.2224869691171376
1.2224869691171376
1.2224869691171443
1.2224869691171376
1.2224869691184397
1.2224869691171376
1.2224869692983307
1.2224869691171489
1.2224869854180167
1.2224869691185618
1.2224878376815671
1.2224869692252733
1.2225109125165599
1.2224869689592941
1.2227001388253087
1.3482737836146717
1.3483074588842234
1.3482737840216326
1.3482749019442268
1.3482737838287815
1.3482738029265511
1.3482737838264995
1.3482737840191983
1.3482737838264836
1.3482737838277372
1.3482737838264836
1.3482737838264902
1.3482737838264836
1.3482737838264836
1.3482737838264836
1.3482737838264836
1.3482737838264836
1.3482737838264836
1.3482737838264836
1.3482737838264902
1.3482737838264836
1.3482737838277372
1.3482737838264836
1.3482737840191983
1.3482737838264995
1.3482738029265511
1.3482737838287815
1.3482749019442268
1.3482737840216326
1.3483074588842234
1.3482737836146717
1.3486451353339457
1.4994483052026983
1.4994893784566423
1.4994483056884851
1.4994495390417295
1.4994483054331056
1.4994483244045276
1.4994483054304428
1.4994483056024617
1.4994483054304273
1.4994483054314325
1.4994483054304273
1.4994483054304311
1.4994483054304273
1.4994483054304273
1.4994483054304273
1.4994483054304273
1.4994483054304273
1.4994483054304273
1.4994483054304273
1.4994483054304311
1.4994483054304273
1.4994483054314325
1.4994483054304273
1.4994483056024617
1.4994483054304428
1.4994483244045276
1.4994483054331056
1.4994495390417295
1.4994483056884851
1.4994893784566423
1.4994483052026983
1.5
1.650691052016757
1.6507331177428877
1.6506910524589578
1.6506922013784655
1.6506910522211633
1.6506910682512503
1.6506910522189577
1.6506910523506679
1.6506910522189457
1.6506910522196434
1.6506910522189457
1.6506910522189486
1.6506910522189457
1.6506910522189457
1.6506910522189457
1.6506910522189457
1.6506910522189457
1.6506910522189457
1.6506910522189457
1.6506910522189486
1.6506910522189457
1.6506910522196434
1.6506910522189457
1.6506910523506679
1.6506910522189577
1.6506910682512503
1.6506910522211633
1.6506922013784655
1.6506910524589578
1.6507331177428877
1.650691052016757
1.6513548646660543
1.7766585903154679
1.7766946662142822
1.7766585906301846
1.7766595035385542
1.7766585904720018
1.7766586022625814
1.7766585904706631
1.7766585905603354
1.7766585904706562
1.7766585904710954
1.7766585904706562
1.7766585904706582
1.7766585904706562
1.7766585904706562
1.7766585904706562
1.7766585904706562
1.7766585904706562
1.7766585904706562
1.7766585904706562
1.7766585904706582
1.7766585904706562
1.7766585904710954
1.7766585904706562
1.7766585905603354
1.7766585904706631
1.7766586022625814
1.7766585904720018
1.7766595035385542
1.7766585906301846
1.7766946662142822
1.7766585903154679
1.7772998611746911
1.8665242496695988
1.8665508066717746
1.8665242498528658
1.8665248862092472
1.8665242497732131
1.8665242575600707
1.8665242497725811
1.866524249828726
1.8665242497725778
1.8665242497728378
1.8665242497725778
1.8665242497725787
1.8665242497725778
1.8665242497725778
1.8665242497725778
1.8665242497725778
1.8665242497725778
1.8665242497725778
1.8665242497725778
1.8665242497725787
1.8665242497725778
1.8665242497728378
1.8665242497725778
1.866524249828726
1.8665242497725811
1.8665242575600707
1.8665242497732131
1.8665248862092472
1.8665242498528658
1.8665508066717746
1.8665242496695988
1.8670357598021707
1.923789032633942
1.9238064522290117
1.9237890327238567
1.9237894353512801
1.9237890326912099
1.9237890374500228
1.9237890326909599
1.9237890327241356
1.9237890326909588
1.9237890326911082
1.9237890326909588
1.9237890326909588
1.9237890326909588
1.9237890326909588
1.9237890326909588
1.9237890326909588
1.9237890326909588
1.9237890326909588
1.9237890326909588
1.9237890326909588
1.9237890326909588
1.9237890326911082
1.9237890326909588
1.9237890327241356
1.9237890326909599
1.9237890374500228
1.9237890326912099
1.9237894353512801
1.9237890327238567
1.9238064522290117
1.923789032633942
1.9241418199787566
1.95769203282532
1.9577025894630711
1.9576920328631764
1.9576922714018927
1.9576920328515408
1.9576920356120007
1.9576920328514535
1.9576920328703147
1.9576920328514533
1.9576920328515361
1.9576920328514533
1.9576920328514535
1.9576920328514533
1.9576920328514533
1.9576920328514533
1.9576920328514533
1.9576920328514533
1.9576920328514533
1.9576920328514533
1.9576920328514535
1.9576920328514533
1.9576920328515361
1.9576920328514533
1.9576920328703147
1.9576920328514535
1.9576920356120007
1.9576920328515408
1.9576922714018927
1.9576920328631764
1.9577025894630711
1.95769203282532
1.9579122720843811
1.9768936210086046
1.9768997032586926
1.9768936210226431
1.9768937565926303
1.9768936210188472
1.976893622568423
1.9768936210188193
1.976893621029286
1.9768936210188193
1.9768936210188648
1.9768936210188193
1.9768936210188193
1.9768936210188193
1.9768936210188193
1.9768936210188193
1.9768936210188193
1.9768936210188193
1.9768936210188193
1.9768936210188193
1.9768936210188193
1.9768936210188193
1.9768936210188648
1.9768936210188193
1.976893621029286
1.9768936210188193
1.976893622568423
1.9768936210188472
1.9768937565926303
1.9768936210226431
1.9768997032586926
1.9768936210086046
1.9770226300899743
1.9874956521591503
1.9874990519396369
1.98749565216389
1.9874957273424751
1.9874956521627158
1.9874956530160139
1.987495652162707
1.9874956521684335
1.987495652162707
1.9874956521627316
1.987495652162707
1.987495652162707
1.987495652162707
1.987495652162707
1.987495652162707
1.987495652162707
1.987495652162707
1.987495652162707
1.987495652162707
1.987495652162707
1.987495652162707
1.9874956521627316
1.987495652162707
1.9874956521684335
1.987495652162707
1.9874956530160139
1.9874956521627158
1.9874957273424751
1.98749565216389
1.9874990519396369
1.9874956521591503
1.9875683491468141
1.9932671201987966
1.9932689887539896
1.9932671202003018
1.9932671613395536
1.9932671201999483
1.9932671206651451
1.9932671201999459
1.993267120203057
1.9932671201999459
1.9932671201999597
1.9932671201999459
1.9932671201999459
1.9932671201999459
1.9932671201999459
1.9932671201999459
1.9932671201999459
1.9932671201999459
1.9932671201999459
1.9932671201999459
1.9932671201999459
1.9932671201999459
1.9932671201999597
1.9932671201999459
1.993267120203057
1.9932671201999459
1.9932671206651451
1.9932671201999483
1.9932671613395536
1.9932671202003018
1.9932689887539896
1.9932671201987966
1.993307149075715
1.9963846247411858
1.9963856445902677
1.9963846247416441
1.9963846471396385
1.9963846247415393
1.996384624994332
1.9963846247415384
1.9963846247432258
1.9963846247415384
1.996384624741546
1.9963846247415384
1.9963846247415384
1.9963846247415384
1.9963846247415384
1.9963846247415384
1.9963846247415384
1.9963846247415384
1.9963846247415384
1.9963846247415384
1.9963846247415384
1.9963846247415384
1.996384624741546
1.9963846247415384
1.9963846247432258
1.9963846247415384
1.996384624994332
1.9963846247415393
1.9963846471396385
1.9963846247416441
1.9963856445902677
1.9963846247411858
1.9964063974185799
1.9980627956673678
1.9980633086460342
1.9980627956681241
1.9980628072860223
1.9980627956680885
1.9980627958014858
1.9980627956680885
1.9980627956689883
1.9980627956680885
1.9980627956680919
1.9980627956680885
1.9980627956680885
1.9980627956680885
1.9980627956680885
1.9980627956680885
1.9980627956680885
1.9980627956680885
1.9980627956680885
1.9980627956680885
1.9980627956680885
1.9980627956680885
1.9980627956680919
1.9980627956680885
1.9980627956689883
1.9980627956680885
1.9980627958014858
1.9980627956680885
1.9980628072860223
1.9980627956681241
1.9980633086460342
1.9980627956673678
1.9980732653366724
1.9989614306288646
1.9989617373782271
1.9989614306288921
1.9989614373528066
1.998961430628883
1.9989614307047197
1.998961430628883
1.9989614306293892
1.998961430628883
1.9989614306288856
1.998961430628883
1.998961430628883
1.998961430628883
1.998961430628883
1.998961430628883
1.998961430628883
1.998961430628883
1.998961430628883
1.998961430628883
1.998961430628883
1.998961430628883
1.9989614306288856
1.998961430628883
1.9989614306293892
1.998961430628883
1.9989614307047197
1.998961430628883
1.9989614373528066
1.9989614306288921
1.9989617373782271
1.9989614306288646
1.9989677689632452
1.999499722691275
1.9994974033828936
1.999499722777496
1.9994996833476153
1.9994997227757203
1.9994997224263362
1.9994997227757014
1.999499722773842
1.9994997227757012
1.9994997227756948
1.9994997227757012
1.9994997227757012
1.9994997227757012
1.9994997227757012
1.9994997227757012
1.9994997227757012
1.9994997227757012
1.9994997227757012
1.9994997227757012
1.9994997227757012
1.9994997227757012
1.9994997227756948
1.9994997227757012
1.999499722773842
1.9994997227757014
1.9994997224263362
1.9994997227757203
1.9994996833476153
1.999499722777496
1.9994974033828936
1.999499722691275
1.9994472213630763
1.9997020182758594
1.9997021380015296
1.9997020182757954
1.9997020209937575
1.9997020182758474
1.9997020183070657
1.9997020182758483
1.9997020182760585
1.9997020182758483
1.9997020182758496
1.9997020182758483
1.9997020182758483
1.9997020182758483
1.9997020182758483
1.9997020182758483
1.9997020182758483
1.9997020182758483
1.9997020182758483
1.9997020182758483
1.9997020182758483
1.9997020182758483
1.9997020182758496
1.9997020182758483
1.9997020182760585
1.9997020182758483
1.9997020183070657
1.9997020182758474
1.9997020209937575
1.9997020182757954
1.9997021380015296
1.9997020182758594
1.999704042886487
2.0007655915240665
2.0007110022621348
2.0007655920655409
2.0007643406430833
2.0007655917381642
2.0007655772275172
2.0007655917357079
2.0007655916370131
2.0007655917356972
2.0007655917352656
2.0007655917356972
2.0007655917356955
2.0007655917356972
2.0007655917356972
2.0007655917356972
2.0007655917356972
2.0007655917356972
2.0007655917356972
2.0007655917356972
2.0007655917356955
2.0007655917356972
2.0007655917352656
2.0007655917356972
2.0007655916370131
2.0007655917357079
2.0007655772275172
2.0007655917381642
2.0007643406430833
2.0007655920655409
2.0007110022621348
2.0007655915240665
1.9998415637808975
1.9999151889582765
1.9999151889582765
1.9999151889582765
1.9999151889582765
1.9999151889582765
1.9999151889582765
1.9999151889582765
1.9999151889582765
1.9999151889582765
1.9999151889582765
1.9999151889582765
1.9999151889582765
1.9999151889582765
1.9999151889582765
1.9999151889582765
1.9999151889582765
1.9999151889582765
1.9999151889582765
1.9999151889582765
1.9999151889582765
1.9999151889582765
1.9999151889582765
1.9999151889582765
1.9999151889582765
1.9999151889582765
1.9999151889582765
1.9999151889582765
1.9999151889582765
1.9999151889582765
1.9999151889582765
1.9999151889582765
1.9999151889582765
1.0024214653044936
1.0022386780450203
1.0024214804899751
1.0024126548452572
1.0024214715575666
1.0024212538908082
1.0024214713968183
1.002421468242922
1.0024214713952391
1.0024214713658621
1.0024214713952284
1.0024214713950408
1.0024214713952284
1.0024214713952273
1.0024214713952284
1.0024214713952284
1.0024214713952284
1.0024214713952273
1.0024214713952284
1.0024214713950408
1.0024214713952284
1.0024214713658621
1.0024214713952391
1.002421468242922
1.0024214713968183
1.0024212538908082
1.0024214715575666
1.0024126548452572
1.0024214804899751
1.0022386780450203
1.0024214653044936
1.0000453978687025
1.0000864692890996
1.0000863324309925
1.0000864692914444
1.0000864637339502
1.0000864692903311
1.0000864691673508
1.0000864692903018
1.0000864692886529
1.0000864692903013
1.000086469290288
1.0000864692903013
1.0000864692903013
1.0000864692903013
1.0000864692903013
1.0000864692903013
1.0000864692903013
1.0000864692903013
1.0000864692903013
1.0000864692903013
1.0000864692903013
1.0000864692903013
1.000086469290288
1.0000864692903013
1.0000864692886529
1.0000864692903018
1.0000864691673508
1.0000864692903311
1.0000864637339502
1.0000864692914444
1.0000863324309925
1.0000864692890996
1.0000848110417238
1.0003492303527761
1.0003318736236004
1.0003492328872567
1.0003485950760558
1.0003492327711512
1.000349220441562
1.0003492327684174
1.000349232624604
1.0003492327683887
1.0003492327672887
1.0003492327683887
1.0003492327683823
1.0003492327683887
1.0003492327683887
1.0003492327683887
1.0003492327683887
1.0003492327683887
1.0003492327683887
1.0003492327683887
1.0003492327683823
1.0003492327683887
1.0003492327672887
1.0003492327683887
1.000349232624604
1.0003492327684174
1.000349220441562
1.0003492327711512
1.0003485950760558
1.0003492328872567
1.0003318736236004
1.0003492303527761
1.0001584362191025
1.0002953048465584
1.0002953582503531
1.0002953048471033
1.0002953073508003
1.0002953048470726
1.000295304906385
1.0002953048470717
1.0002953048478922
1.0002953048470717
1.0002953048470795
1.0002953048470717
1.0002953048470717
1.0002953048470717
1.0002953048470717
1.0002953048470717
1.0002953048470717
1.0002953048470717
1.0002953048470717
1.0002953048470717
1.0002953048470717
1.0002953048470717
1.0002953048470795
1.0002953048470717
1.0002953048478922
1.0002953048470717
1.000295304906385
1.0002953048470726
1.0002953073508003
1.0002953048471033
1.0002953582503531
1.0002953048465584
1.0002959571135133
1.000560453564822
1.0005599345742213
1.0005604536075798
1.000560440611995
1.0005604536068549
1.0005604534452954
1.0005604536068315
1.0005604536057804
1.0005604536068315
1.0005604536068289
1.0005604536068315
1.0005604536068315
1.0005604536068315
1.0005604536068315
1.0005604536068315
1.0005604536068315
1.0005604536068315
1.0005604536068315
1.0005604536068315
1.0005604536068315
1.0005604536068315
1.0005604536068289
1.0005604536068315
1.0005604536057804
1.0005604536068315
1.0005604534452954
1.0005604536068549
1.000560440611995
1.0005604536075798
1.0005599345742213
1.000560453564822
1.0005527786369237
1.0010293221353674
1.0010295568698715
1.0010293221354354
1.001029332443637
1.0010293221354214
1.0010293223701381
1.0010293221354212
1.0010293221385886
1.0010293221354212
1.0010293221354496
1.0010293221354212
1.0010293221354214
1.0010293221354212
1.0010293221354212
1.0010293221354212
1.0010293221354212
1.0010293221354212
1.0010293221354212
1.0010293221354212
1.0010293221354214
1.0010293221354212
1.0010293221354496
1.0010293221354212
1.0010293221385886
1.0010293221354212
1.0010293223701381
1.0010293221354214
1.001029332443637
1.0010293221354354
1.0010295568698715
1.0010293221353674
1.001032231036755
1.0019215228021303
1.0019219476954104
1.0019215228027343
1.0019215416985336
1.0019215228026888
1.0019215232354923
1.0019215228026874
1.001921522808545
1.0019215228026874
1.0019215228027389
1.0019215228026874
1.0019215228026876
1.0019215228026874
1.0019215228026874
1.0019215228026874
1.0019215228026874
1.0019215228026874
1.0019215228026874
1.0019215228026874
1.0019215228026876
1.0019215228026874
1.0019215228027389
1.0019215228026874
1.001921522808545
1.0019215228026874
1.0019215232354923
1.0019215228026888
1.0019215416985336
1.0019215228027343
1.0019219476954104
1.0019215228021303
1.0019267346633276
1.0035834826762642
1.0035842936567472
1.0035834826769272
1.0035835182118473
1.0035834826767749
1.0035834834844011
1.0035834826767729
1.0035834826876526
1.0035834826767729
1.0035834826768679
1.0035834826767729
1.0035834826767731
1.0035834826767729
1.0035834826767729
1.0035834826767729
1.0035834826767729
1.0035834826767729
1.0035834826767729
1.0035834826767729
1.0035834826767731
1.0035834826767729
1.0035834826768679
1.0035834826767729
1.0035834826876526
1.0035834826767729
1.0035834834844011
1.0035834826767749
1.0035835182118473
1.0035834826769272
1.0035842936567472
1.0035834826762642
1.0035936025814203
1.0066740861267494
1.0066755813105988
1.006674086128911
1.006674151516745
1.0066740861283954
1.0066740876112723
1.0066740861283867
1.0066740861483165
1.0066740861283867
1.0066740861285599
1.0066740861283867
1.0066740861283876
1.0066740861283867
1.0066740861283867
1.0066740861283867
1.0066740861283867
1.0066740861283867
1.0066740861283867
1.0066740861283867
1.0066740861283876
1.0066740861283867
1.0066740861285599
1.0066740861283867
1.0066740861483165
1.0066740861283867
1.0066740876112723
1.0066740861283954
1.006674151516745
1.006674086128911
1.0066755813105988
1.0066740861267494
1.006692850924285
1.0123970326209406
1.0123997631527881
1.0123970326276686
1.0123971515711878
1.0123970326259504
1.0123970353118077
1.0123970326259215
1.0123970326618574
1.0123970326259213
1.0123970326262326
1.0123970326259213
1.0123970326259235
1.0123970326259213
1.0123970326259213
1.0123970326259213
1.0123970326259213
1.0123970326259213
1.0123970326259213
1.0123970326259213
1.0123970326259235
1.0123970326259213
1.0123970326262326
1.0123970326259213
1.0123970326618574
1.0123970326259215
1.0123970353118077
1.0123970326259504
1.0123971515711878
1.0123970326276686
1.0123997631527881
1.0123970326209406
1.0124316508531859
1.0229140534897614
1.0229189603404492
1.0229140535093812
1.0229142656742449
1.022914053503847
1.0229140582561231
1.0229140535037573
1.0229140535667958
1.0229140535037571
1.0229140535042969
1.0229140535037571
1.02291405350376
1.0229140535037571
1.0229140535037571
1.0229140535037571
1.0229140535037571
1.0229140535037571
1.0229140535037571
1.0229140535037571
1.02291405350376
1.0229140535037571
1.0229140535042969
1.0229140535037571
1.0229140535667958
1.0229140535037573
1.0229140582561231
1.022914053503847
1.0229142656742449
1.0229140535093812
1.0229189603404492
1.0229140534897614
1.0229773699100257
1.0419734099022706
1.0419820081430293
1.0419734099543172
1.0419737766236952
1.0419734099374474
1.0419734180285316
1.0419734099371813
1.0419734100428331
1.041973409937178
1.0419734099380678
1.041973409937178
1.0419734099371842
1.041973409937178
1.041973409937178
1.041973409937178
1.041973409937178
1.041973409937178
1.041973409937178
1.041973409937178
1.0419734099371842
1.041973409937178
1.0419734099380678
1.041973409937178
1.0419734100428331
1.0419734099371813
1.0419734180285316
1.0419734099374474
1.0419737766236952
1.0419734099543172
1.0419820081430293
1.0419734099022706
1.0420877279156189
1.0756558727333612
1.0756703771671501
1.0756558728548464
1.0756564762608156
1.0756558728076027
1.0756558857713987
1.0756558728068821
1.0756558729714816
1.0756558728068761
1.0756558728082233
1.0756558728068761
1.0756558728068837
1.0756558728068761
1.0756558728068761
1.0756558728068761
1.0756558728068761
1.0756558728068761
1.0756558728068761
1.0756558728068761
1.0756558728068837
1.0756558728068761
1.0756558728082233
1.0756558728068761
1.0756558729714816
1.0756558728068821
1.0756558857713987
1.0756558728076027
1.0756564762608156
1.0756558728548464
1.0756703771671501
1.0756558727333612
1.0758581800212434
1.1326178145012114
1.1326409560834163
1.1326178147433994
1.1326187377721522
1.1326178146271566
1.1326178335782315
1.1326178146254768
1.1326178148549857
1.1326178146254642
1.1326178146272543
1.132617814625464
1.1326178146254733
1.132617814625464
1.132617814625464
1.132617814625464
1.132617814625464
1.132617814625464
1.132617814625464
1.132617814625464
1.1326178146254733
1.132617814625464
1.1326178146272543
1.1326178146254642
1.1326178148549857
1.1326178146254768
1.1326178335782315
1.1326178146271566
1.1326187377721522
1.1326178147433994
1.1326409560834163
1.1326178145012114
1.1329642401978293
1.2221401700039463
1.2221741944849329
1.2221401704089712
1.2221414406823694
1.2221401701732919
1.2221401944788024
1.222140170170152
1.2221401704438737
1.2221401701701282
1.2221401701721117
1.2221401701701282
1.2221401701701389
1.2221401701701282
1.2221401701701282
1.2221401701701282
1.2221401701701282
1.2221401701701282
1.2221401701701282
1.2221401701701282
1.2221401701701389
1.2221401701701282
1.2221401701721117
1.2221401701701282
1.2221401704438737
1.222140170170152
1.2221401944788024
1.2221401701732919
1.2221414406823694
1.2221401704089712
1.2221741944849329
1.2221401700039463
1.2227001388253087
1.3478259702137032
1.3478703721993033
1.3478259707660929
1.3478274844514049
1.3478259704024462
1.3478259967375255
1.3478259703980884
1.3478259706672848
1.3478259703980595
1.3478259703998281
1.3478259703980595
1.3478259703980668
1.3478259703980595
1.3478259703980595
1.3478259703980595
1.3478259703980595
1.3478259703980595
1.3478259703980595
1.3478259703980595
1.3478259703980668
1.3478259703980595
1.3478259703998281
1.3478259703980595
1.3478259706672848
1.3478259703980884
1.3478259967375255
1.3478259704024462
1.3478274844514049
1.3478259707660929
1.3478703721993033
1.3478259702137032
1.3486451353339457
1.4989692995291701
1.4990187617076283
1.4989693001168685
1.4989708191441471
1.4989692997163488
1.4989693234544059
1.4989692997120838
1.4989692999298359
1.4989692997120576
1.4989692997133415
1.4989692997120576
1.4989692997120625
1.4989692997120576
1.4989692997120576
1.4989692997120576
1.4989692997120576
1.4989692997120576
1.4989692997120576
1.4989692997120576
1.4989692997120625
1.4989692997120576
1.4989692997133415
1.4989692997120576
1.4989692999298359
1.4989692997120838
1.4989693234544059
1.4989692997163488
1.4989708191441471
1.4989693001168685
1.4990187617076283
1.4989692995291701
1.5
1.6502782554171058
1.6503244414006399
1.6502782559012352
1.6502795406283683
1.6502782555898967
1.6502782737489192
1.6502782555869187
1.6502782557375613
1.650278255586902