# vtk DataFile Version 3.0
Euler density step 418
ASCII
DATASET STRUCTURED_POINTS
DIMENSIONS 32 32 32
ORIGIN 0 0 0
SPACING 0.3125 0.3125 0.3125
POINT_DATA 32768
SCALARS density double 1
LOOKUP_TABLE default
1.0080314143688487
1.0020113856141744
1.0080543929948291
1.0041002949346642
1.0080605234526883
1.0057025168928064
1.0080580860059651
1.0069773913072344
1.0080540479623366
1.0077054333669613
1.008052317826442
1.0079730300608976
1.0080519452559673
1.0080386708394258
1.0080518951245323
1.0080486322720208
1.0080518951245323
1.0080386708394258
1.0080519452559673
1.0079730300608976
1.008052317826442
1.0077054333669613
1.0080540479623366
1.0069773913072344
1.0080580860059651
1.0057025168928064
1.0080605234526883
1.0041002949346642
1.0080543929948291
1.0020113856141744
1.0080314143688487
1.0000453978687025
1.000022178201335
1.0000658378172367
1.0000221024167522
1.0000452802060265
1.0000220796605879
1.0000322426996597
1.0000220842157734
1.0000258338590979
1.0000220929723611
1.0000232055462723
1.000022097139363
1.0000223494712706
1.0000220981729184
1.0000221418658097
1.0000220983315955
1.0000221095533364
1.0000220983315955
1.0000221418658097
1.0000220981729184
1.0000223494712706
1.000022097139363
1.0000232055462723
1.0000220929723611
1.0000258338590979
1.0000220842157734
1.0000322426996597
1.0000220796605879
1.0000452802060265
1.0000221024167522
1.0000658378172367
1.000022178201335
1.0000848110417238
1.007343745547665
1.0022224503630175
1.0073564808848512
1.0038858424862667
1.0073625900943008
1.0053219324202667
1.007361586037947
1.0064845893704935
1.0073591061602372
1.0070996491761093
1.0073581361503123
1.0073042747909371
1.0073579498971927
1.0073497213142777
1.0073579273476416
1.0073560683576113
1.0073579273476416
1.0073497213142777
1.0073579498971927
1.0073042747909371
1.0073581361503123
1.0070996491761093
1.0073591061602372
1.0064845893704935
1.007361586037947
1.0053219324202667
1.0073625900943008
1.0038858424862667
1.0073564808848512
1.0022224503630175
1.007343745547665
1.0001584362191025
1.000117292626975
1.0002313189303598
1.0001172948356649
1.0001767958822383
1.0001172812788204
1.0001418819546957
1.0001172764209501
1.0001252060065597
1.0001172784617793
1.0001192408765418
1.0001172799998213
1.0001176504446425
1.0001172803890155
1.0001173346008287
1.000117280445024
1.0001172925541639
1.000117280445024
1.0001173346008287
1.0001172803890155
1.0001176504446425
1.0001172799998213
1.0001192408765418
1.0001172784617793
1.0001252060065597
1.0001172764209501
1.0001418819546957
1.0001172812788204
1.0001767958822383
1.0001172948356649
1.0002313189303598
1.000117292626975
1.0002959571135133
1.0060965687545178
1.002058530097043
1.0061024191010848
1.0034263743601772
1.0061060473934496
1.0047040157661744
1.0061057679855387
1.0055915550551937
1.0061048849932874
1.0059748577989684
1.0061045916261162
1.0060812034514341
1.0061045427075219
1.0061014103290129
1.0061045374143471
1.0061039073064246
1.0061045374143471
1.0061014103290129
1.0061045427075219
1.0060812034514341
1.0061045916261162
1.0059748577989684
1.0061048849932874
1.0055915550551937
1.0061057679855387
1.0047040157661744
1.0061060473934496
1.0034263743601772
1.0061024191010848
1.002058530097043
1.0060965687545178
1.0005527786369237
1.0006000632872871
1.0008802737081595
1.0006001161936346
1.0007500142772798
1.0006001335886554
1.0006629220335383
1.0006001303310168
1.0006198723403914
1.0006001279886894
1.0006047413322983
1.000600127569033
1.0006009384039669
1.0006001275337428
1.000600237925823
1.0006001275323466
1.0006001507151925
1.0006001275323466
1.000600237925823
1.0006001275337428
1.0006009384039669
1.000600127569033
1.0006047413322983
1.0006001279886894
1.0006198723403914
1.0006001303310168
1.0006629220335383
1.0006001335886554
1.0007500142772798
1.0006001161936346
1.0008802737081595
1.0006000632872871
1.001032231036755
1.0053036873745818
1.0029726738453357
1.005305953193804
1.0039408957972473
1.0053073319607277
1.0047160385056766
1.0053073454221959
1.0051301551096412
1.005307180247957
1.0052701656780354
1.0053071306107233
1.0053015651172652
1.0053071230590096
1.0053064974661718
1.0053071223047578
1.0053070162524078
1.0053071223047578
1.0053064974661718
1.0053071230590096
1.0053015651172652
1.0053071306107233
1.0052701656780354
1.005307180247957
1.0051301551096412
1.0053073454221959
1.0047160385056766
1.0053073319607277
1.0039408957972473
1.005305953193804
1.0029726738453357
1.0053036873745818
1.0019267346633276
1.0026603120278321
1.0032873643679878
1.0026604720927421
1.0030121753832917
1.0026605485689091
1.0028152635748733
1.0026605439106624
1.0027110137606654
1.00266053342368
1.0026726183876677
1.0026605305139584
1.0026626897146771
1.0026605300849685
1.0026608277117508
1.0026605300423865
1.002660593181055
1.0026605300423865
1.0026608277117508
1.0026605300849685
1.0026626897146771
1.0026605305139584
1.0026726183876677
1.00266053342368
1.0027110137606654
1.0026605439106624
1.0028152635748733
1.0026605485689091
1.0030121753832917
1.0026604720927421
1.0032873643679878
1.0026603120278321
1.0035936025814203
1.0073429646660377
1.0070052345009153
1.0073437852357974
1.0072403340012386
1.0073442285491834
1.0073525448490239
1.0073442513013211
1.0073646094132063
1.0073442176584093
1.0073526556008645
1.007344207108346
1.0073462145115268
1.0073442054829098
1.0073445355530171
1.0073442053204908
1.0073442837336917
1.0073442053204908
1.0073445355530171
1.0073442054829098
1.0073462145115268
1.007344207108346
1.0073526556008645
1.0073442176584093
1.0073646094132063
1.0073442513013211
1.0073525448490239
1.0073442285491834
1.0072403340012386
1.0073437852357974
1.0070052345009153
1.0073429646660377
1.006692850924285
1.0107372561992645
1.0119195032334076
1.0107377780264633
1.0114297624588
1.0107380213333308
1.0110587396997035
1.0107379859470207
1.0108477350925065
1.0107379365972637
1.0107652534775491
1.0107379226568975
1.0107429529961904
1.0107379205416689
1.0107386306048254
1.0107379203262268
1.0107380737145326
1.0107379203262268
1.0107386306048254
1.0107379205416689
1.0107429529961904
1.0107379226568975
1.0107652534775491
1.0107379365972637
1.0108477350925065
1.0107379859470207
1.0110587396997035
1.0107380213333308
1.0114297624588
1.0107377780264633
1.0119195032334076
1.0107372561992645
1.0124316508531859
1.0214433941791208
1.0226187194435818
1.021444368241667
1.0222014048118904
1.0214448016477324
1.0218299586298862
1.0214447295623346
1.0215857890450246
1.0214446337880128
1.0214813442824227
1.0214446062792928
1.0214515636436687
1.0214446020416934
1.0214456028289862
1.0214446016053784
1.0214448204308526
1.0214446016053784
1.0214456028289862
1.0214446020416934
1.0214515636436687
1.0214446062792928
1.0214813442824227
1.0214446337880128
1.0215857890450246
1.0214447295623346
1.0218299586298862
1.0214448016477324
1.0222014048118904
1.021444368241667
1.0226187194435818
1.0214433941791208
1.0229773699100257
1.0394187893985407
1.0413552346473309
1.0394203567129354
1.0405845125925373
1.0394209503914076
1.0399837558974268
1.0394207653754937
1.0396210489732347
1.0394205831646259
1.0394719099299992
1.0394205322973085
1.0394301716571448
1.0394205245130117
1.0394219021313702
1.0394205237110641
1.0394208233735045
1.0394205237110641
1.0394219021313702
1.0394205245130117
1.0394301716571448
1.0394205322973085
1.0394719099299992
1.0394205831646259
1.0396210489732347
1.0394207653754937
1.0399837558974268
1.0394209503914076
1.0405845125925373
1.0394203567129354
1.0413552346473309
1.0394187893985407
1.0420877279156189
1.0727370710090696
1.0750719965994793
1.0727397297091774
1.0741621628774778
1.0727405430339783
1.0734425314686007
1.0727401703922512
1.0729937665739639
1.0727398541510267
1.0728052968791915
1.0727397675970403
1.0727520652392386
1.0727397544464761
1.0727415049910911
1.0727397530969311
1.0727401313615186
1.0727397530969311
1.0727415049910911
1.0727397544464761
1.0727520652392386
1.0727397675970403
1.0728052968791915
1.0727398541510267
1.0729937665739639
1.0727401703922512
1.0734425314686007
1.0727405430339783
1.0741621628774778
1.0727397297091774
1.0750719965994793
1.0727370710090696
1.0758581800212434
1.1290001193804118
1.1319626063905674
1.12900459397022
1.1307776967752039
1.1290055578740696
1.1298772558025891
1.1290048454672859
1.1293187811180871
1.129004327965736
1.1290847166660367
1.1290041913959619
1.1290191086783339
1.1290041710686711
1.1290062592874279
1.1290041690133328
1.1290046118879222
1.1290041690133328
1.1290062592874279
1.1290041710686711
1.1290191086783339
1.1290041913959619
1.1290847166660367
1.129004327965736
1.1293187811180871
1.1290048454672859
1.1298772558025891
1.1290055578740696
1.1307776967752039
1.12900459397022
1.1319626063905674
1.1290001193804118
1.1329642401978293
1.2178774412606537
1.2214509842235082
1.2178846372356393
1.2200087958545576
1.2178855248072074
1.2189323788406217
1.21788426593384
1.2182591999241648
1.2178834743966951
1.2179779614065598
1.2178832757295968
1.2179003946900027
1.2178832471886802
1.2178855727310418
1.2178832443852237
1.217883721767784
1.2178832443852237
1.2178855727310418
1.2178832471886802
1.2179003946900027
1.2178832757295968
1.2179779614065598
1.2178834743966951
1.2182591999241648
1.21788426593384
1.2189323788406217
1.2178855248072074
1.2200087958545576
1.2178846372356393
1.2214509842235082
1.2178774412606537
1.2227001388253087
1.3426222948375979
1.3468112774659624
1.342632837611079
1.3451193665159957
1.3426332367545388
1.3438597459435064
1.3426312006104069
1.3430645096612832
1.3426300805215716
1.3427363055084576
1.342629816965069
1.3426483548611143
1.3426297809943613
1.342632188240543
1.3426297776131135
1.3426302484377963
1.3426297776131135
1.342632188240543
1.3426297809943613
1.3426483548611143
1.342629816965069
1.3427363055084576
1.3426300805215716
1.3430645096612832
1.3426312006104069
1.3438597459435064
1.3426332367545388
1.3451193665159957
1.342632837611079
1.3468112774659624
1.3426222948375979
1.3486451353339457
1.4923849816053436
1.4970316173570619
1.4923987334392863
1.495196737078992
1.492398148895191
1.4937823678318631
1.492395199332311
1.4928742116817808
1.4923937620351968
1.4925067138148722
1.492393448825482
1.4924121820364649
1.4923934088588813
1.4923956999299037
1.4923934053250922
1.4923938257846385
1.4923934053250922
1.4923956999299037
1.4923934088588813
1.4924121820364649
1.492393448825482
1.4925067138148722
1.4923937620351968
1.4928742116817808
1.492395199332311
1.4937823678318631
1.492398148895191
1.495196737078992
1.4923987334392863
1.4970316173570619
1.4923849816053436
1.5
1.6420358250610811
1.6469341980941887
1.6420516487774199
1.6450731184106111
1.6420500825797728
1.6435414930664052
1.6420464033646371
1.642545405680137
1.642044790835026
1.642156322451835
1.6420444698937813
1.6420618064237613
1.6420444322655148
1.6420464045782208
1.642044429188033
1.6420447651909518
1.642044429188033
1.6420464045782208
1.6420444322655148
1.6420618064237613
1.6420444698937813
1.642156322451835
1.642044790835026
1.642545405680137
1.6420464033646371
1.6435414930664052
1.6420500825797728
1.6450731184106111
1.6420516487774199
1.6469341980941887
1.6420358250610811
1.6513548646660543
1.767017157589474
1.7720053347669686
1.7670330232653777
1.7701743648825849
1.7670312540303879
1.7685479845466501
1.7670274333088296
1.7675082027892848
1.7670259097521199
1.7671262820140254
1.7670256351174976
1.7670401251500172
1.7670256057293843
1.7670271319572668
1.7670256035136713
1.7670258444015756
1.7670256035136713
1.7670271319572668
1.7670256057293843
1.7670401251500172
1.7670256351174976
1.7671262820140254
1.7670259097521199
1.7675082027892848
1.7670274333088296
1.7685479845466501
1.7670312540303879
1.7701743648825849
1.7670330232653777
1.7720053347669686
1.767017157589474
1.7772998611746911
1.8568521630030239
1.8618500874458024
1.8568662817051793
1.8599933893080975
1.8568649754512903
1.8582974584222265
1.8568616767523844
1.8572842035494455
1.8568604752488318
1.8569422792174135
1.8568602787657758
1.856871241342154
1.8568602594781025
1.8568613326175287
1.8568602581288933
1.8568604159895308
1.8568602581288933
1.8568613326175287
1.8568602594781025
1.856871241342154
1.8568602787657758
1.8569422792174135
1.8568604752488318
1.8572842035494455
1.8568616767523844
1.8582974584222265
1.8568649754512903
1.8599933893080975
1.8568662817051793
1.8618500874458024
1.8568521630030239
1.8670357598021707
1.9149457385209125
1.919736945205831
1.9149568842574971
1.9178579602202266
1.9149561847408096
1.9161937210526838
1.9149537983474585
1.9152916354037126
1.9149529995491714
1.9150138086137247
1.9149528798941571
1.9149604970634744
1.9149528689981397
1.914953568707388
1.91495286828353
1.9149529652618047
1.91495286828353
1.914953568707388
1.9149528689981397
1.9149604970634744
1.9149528798941571
1.9150138086137247
1.9149529995491714
1.9152916354037126
1.9149537983474585
1.9161937210526838
1.9149561847408096
1.9178579602202266
1.9149568842574971
1.919736945205831
1.9149457385209125
1.9241418199787566
1.949902668482334
1.9542984426742536
1.9499105069803548
1.952409712587444
1.9499102516764408
1.9508921670503128
1.9499087766293419
1.950157280580223
1.9499083189335407
1.9499502079672812
1.9499082553506779
1.9499132092886133
1.9499082499120151
1.9499086819356966
1.949908249573884
1.9499083066899532
1.949908249573884
1.9499086819356966
1.9499082499120151
1.9499132092886133
1.9499082553506779
1.9499502079672812
1.9499083189335407
1.950157280580223
1.9499087766293419
1.9508921670503128
1.9499102516764408
1.952409712587444
1.9499105069803548
1.9542984426742536
1.949902668482334
1.9579122720843811
1.9710664224228027
1.9744821882962249
1.9710712839768929
1.9729528703092076
1.9710712933767547
1.9717710099782093
1.9710705158666197
1.9712380965391325
1.9710702869382595
1.9710971813487179
1.9710702568925944
1.9710733034962542
1.9710702544430279
1.9710705101297792
1.9710702542970344
1.9710702869617465
1.9710702542970344
1.9710705101297792
1.9710702544430279
1.9710733034962542
1.9710702568925944
1.9710971813487179
1.9710702869382595
1.9712380965391325
1.9710705158666197
1.9717710099782093
1.9710712933767547
1.9729528703092076
1.9710712839768929
1.9744821882962249
1.9710664224228027
1.9770226300899743
1.9825350856048296
1.9854099727044905
1.9825378483753289
1.9839782490181803
1.9825379073621809
1.9830288041012847
1.9825375305749842
1.9826475232707912
1.9825374260149948
1.9825542091046713
1.9825374130195426
1.9825392404088376
1.9825374120044528
1.9825375604824198
1.982537411946089
1.982537430409135
1.982537411946089
1.9825375604824198
1.9825374120044528
1.9825392404088376
1.9825374130195426
1.9825542091046713
1.9825374260149948
1.9826475232707912
1.9825375305749842
1.9830288041012847
1.9825379073621809
1.9839782490181803
1.9825378483753289
1.9854099727044905
1.9825350856048296
1.9875683491468141
1.991739698127702
1.9926566410072615
1.9917414104257849
1.9922829013761534
1.9917415880034643
1.9919504780200499
1.9917414414740828
1.9917918696616734
1.9917413976338134
1.9917494352019125
1.991741392080687
1.9917422900995674
1.9917413916443076
1.9917414657381005
1.9917413916194224
1.9917414009145076
1.9917413916194224
1.9917414657381005
1.9917413916443076
1.9917422900995674
1.991741392080687
1.9917494352019125
1.9917413976338134
1.9917918696616734
1.9917414414740828
1.9919504780200499
1.9917415880034643
1.9922829013761534
1.9917414104257849
1.9926566410072615
1.991739698127702
1.993307149075715
1.9939032155716045
1.9953181379761333
1.9939038781687548
1.9945473961573772
1.9939039169061203
1.9941029277619517
1.993903853737689
1.9939450562832637
1.9939038374470934
1.9939097481988772
1.9939038355789365
1.9939044486887498
1.9939038354426843
1.993903883349778
1.9939038354353091
1.9939038412060326
1.9939038354353091
1.993903883349778
1.9939038354426843
1.9939044486887498
1.9939038355789365
1.9939097481988772
1.9939038374470934
1.9939450562832637
1.993903853737689
1.9941029277619517
1.9939039169061203
1.9945473961573772
1.9939038781687548
1.9953181379761333
1.9939032155716045
1.9964063974185799
2.0009397336858035
1.9989745422604992
2.000942435739927
1.9999753748955009
2.0009427437785896
2.0006474697225669
2.0009424861850333
2.0008858411252737
2.0009424110418843
2.0009351493049712
2.0009424015739627
2.0009417428717242
2.0009424008163554
2.0009423565087889
2.0009424007720789
2.000942396228282
2.0009424007720789
2.0009423565087889
2.0009424008163554
2.0009417428717242
2.0009424015739627
2.0009351493049712
2.0009424110418843
2.0008858411252737
2.0009424861850333
2.0006474697225669
2.0009427437785896
1.9999753748955009
2.000942435739927
1.9989745422604992
2.0009397336858035
1.9980732653366724
1.9979890455628502
1.9985398436752273
1.9979891485920684
1.998232460979138
1.9979891537703012
1.9980637451029792
1.9979891528543976
1.9980046545095813
1.9979891537692154
1.997991394132121
1.9979891540374881
1.9979893880423543
1.9979891540705543
1.9979891724476257
1.9979891540730845
1.997989156292767
1.9979891540730845
1.9979891724476257
1.9979891540705543
1.9979893880423543
1.9979891540374881
1.997991394132121
1.9979891537692154
1.9980046545095813
1.9979891528543976
1.9980637451029792
1.9979891537703012
1.998232460979138
1.9979891485920684
1.9985398436752273
1.9979890455628502
1.9989677689632452
2.0049442837049649
2.0010835764414932
2.0049533502104118
2.0026466647606296
2.0049532601674747
2.0040560802416119
2.004951611687642
2.0047356487822747
2.0049511227075185
2.0049171160735746
2.0049510577125118
2.0049473274300045
2.0049510523211493
2.0049507514925078
2.0049510519946323
2.0049510152296852
2.0049510519946323
2.0049507514925078
2.0049510523211493
2.0049473274300045
2.0049510577125118
2.0049171160735746
2.0049511227075185
2.0047356487822747
2.004951611687642
2.0040560802416119
2.0049532601674747
2.0026466647606296
2.0049533502104118
2.0010835764414932
2.0049442837049649
1.9994472213630763
1.9994178881235354
1.9995892105435773
1.9994178281812451
1.9994941371373272
1.9994178320841502
1.9994437935219902
1.9994178505908025
1.9994242163940081
1.9994178583484596
1.9994189524014625
1.9994178597948182
1.9994179937033794
1.9994178599534835
1.9994178720472451
1.99941785996535
1.9994178616117237
1.99941785996535
1.9994178720472451
1.9994178599534835
1.9994179937033794
1.9994178597948182
1.9994189524014625
1.9994178583484596
1.9994242163940081
1.9994178505908025
1.9994437935219902
1.9994178320841502
1.9994941371373272
1.9994178281812451
1.9995892105435773
1.9994178881235354
1.999704042886487
2.0073026533658616
2.002662285574949
2.0073222082921998
2.0044793797700597
2.0073178639662381
2.0060556434661931
2.007313306640468
2.0069597656316325
2.0073119139974609
2.0072477976533691
2.0073117075011573
2.0073037203395518
2.0073116886410372
2.0073109657386885
2.0073116874081882
2.0073115894247135
2.0073116874081882
2.0073109657386885
2.0073116886410372
2.0073037203395518
2.0073117075011573
2.0072477976533691
2.0073119139974609
2.0069597656316325
2.007313306640468
2.0060556434661931
2.0073178639662381
2.0044793797700597
2.0073222082921998
2.002662285574949
2.0073026533658616
1.9998415637808975
1.9999151889582765
1.9999151889582765
1.9999151889582765
1.9999151889582765
1.9999151889582765
1.9999151889582765
1.9999151889582765
1.9999151889582765
1.9999151889582765
1.9999151889582765
1.9999151889582765
1.9999151889582765
1.9999151889582765
1.9999151889582765
1.9999151889582765
1.9999151889582765
1.9999151889582765
1.9999151889582765
1.9999151889582765
1.9999151889582765
1.9999151889582765
1.9999151889582765
1.9999151889582765
1.9999151889582765
1.9999151889582765
1.9999151889582765
1.9999151889582765
1.9999151889582765
1.9999151889582765
1.9999151889582765
1.9999151889582765
1.9999151889582765
1.0033479240182142
1.0015383492030923
1.0033648340442041
1.0021405651036368
1.003365083085862
1.0024208547912783
1.0033636378223454
1.0027644097229882
1.0033613133559274
1.0031083003885821
1.0033599620414577
1.0032888750830573
1.003359582438581
1.0033453880694172
1.0033595186454749
1.0033554883297215
1.0033595186454749
1.0033453880694172
1.003359582438581
1.0032888750830573
1.0033599620414577
1.0031083003885821
1.0033613133559274
1.0027644097229882
1.0033636378223454
1.0024208547912783
1.003365083085862
1.0021405651036368
1.0033648340442041
1.0015383492030923
1.0033479240182142
1.0000453978687025
1.0000488371178911
1.0000771656038074
1.0000487706205585
1.0000646790739114
1.0000487583406008
1.0000557387836517
1.0000487649281824
1.0000512547495259
1.0000487716798789
1.0000495158398326
1.0000487750135034
1.0000489561695562
1.0000487759680023
1.0000488111223405
1.0000487761395849
1.000048786345979
1.0000487761395849
1.0000488111223405
1.0000487759680023
1.0000489561695562
1.0000487750135034
1.0000495158398326
1.0000487716798789
1.0000512547495259
1.0000487649281824
1.0000557387836517
1.0000487583406008
1.0000646790739114
1.0000487706205585
1.0000771656038074
1.0000488371178911
1.0000848110417238
1.0021322883212451
1.0007291379852077
1.0021401964237242
1.0010635594611181
1.0021428732613256
1.0012531928033503
1.0021427006828261
1.0016051195314652
1.0021411465818164
1.0019343990303016
1.0021402916587119
1.002087685375282
1.002140077673374
1.0021305469692956
1.002140045355475
1.0021375623114677
1.002140045355475
1.0021305469692956
1.002140077673374
1.002087685375282
1.0021402916587119
1.0019343990303016
1.0021411465818164
1.0016051195314652
1.0021427006828261
1.0012531928033503
1.0021428732613256
1.0010635594611181
1.0021401964237242
1.0007291379852077
1.0021322883212451
1.0001584362191025
1.000197844557051
1.0002661843416303
1.0001978659007305
1.000236392753733
1.0001978614000699
1.0002144627881531
1.0001978561275102
1.0002033304812075
1.0001978551736972
1.0001992694579818
1.0001978556269138
1.0001981439194587
1.0001978558529867
1.0001979027483865
1.0001978558987352
1.0001978676556522
1.0001978558987352
1.0001979027483865
1.0001978558529867
1.0001981439194587
1.0001978556269138
1.0001992694579818
1.0001978551736972
1.0002033304812075
1.0001978561275102
1.0002144627881531
1.0001978614000699
1.000236392753733
1.0001978659007305
1.0002661843416303
1.000197844557051
1.0002959571135133
1.0020039163209038
1.0007836448289038
1.0020070010172608
1.000941436582873
1.0020091163526557
1.00121987712696
1.0020091401464519
1.0016234719404826
1.0020084367977014
1.0018867202157529
1.0020081190687367
1.0019819364411748
1.0020080516047434
1.002003953427838
1.0020080426001265
1.0020070976614064
1.0020080426001265
1.002003953427838
1.0020080516047434
1.0019819364411748
1.0020081190687367
1.0018867202157529
1.0020084367977014
1.0016234719404826
1.0020091401464519
1.00121987712696
1.0020091163526557
1.000941436582873
1.0020070010172608
1.0007836448289038
1.0020039163209038
1.0005527786369237
1.0008209527806109
1.0009712652477027
1.0008209932707468
1.0009101840833639
1.0008210083065954
1.0008634992651388
1.0008210051462463
1.0008363260127113
1.0008210021240445
1.0008250927787168
1.0008210013918879
1.0008218161020941
1.0008210012999188
1.0008211261502205
1.0008210012930847
1.0008210304642498
1.0008210012930847
1.0008211261502205
1.0008210012999188
1.0008218161020941
1.0008210013918879
1.0008250927787168
1.0008210021240445
1.0008363260127113
1.0008210051462463
1.0008634992651388
1.0008210083065954
1.0009101840833639
1.0008209932707468
1.0009712652477027
1.0008209527806109
1.001032231036755
1.0032721403101328
1.0021935007568676
1.0032734585689103
1.0024701135118437
1.0032744597210326
1.0028245365889192
1.0032745010479058
1.0031063060562766
1.0032743240004209
1.003231983879143
1.0032742560450079
1.0032667491568874
1.0032742432844184
1.0032732563181825
1.0032742417265621
1.0032740469278836
1.0032742417265621
1.0032732563181825
1.0032742432844184
1.0032667491568874
1.0032742560450079
1.003231983879143
1.0032743240004209
1.0031063060562766
1.0032745010479058
1.0028245365889192
1.0032744597210326
1.0024701135118437
1.0032734585689103
1.0021935007568676
1.0032721403101328
1.0019267346633276
1.0032284366843067
1.0035102834927512
1.0032285326390618
1.0034114330671591
1.0032285815842628
1.0033252764723808
1.0032285785245558
1.0032663203002328
1.0032285694992307
1.0032391513529704
1.0032285664907963
1.0032307335639801
1.0032285659645663
1.0032289033644517
1.0032285659036004
1.0032286454499277
1.0032285659036004
1.0032289033644517
1.0032285659645663
1.0032307335639801
1.0032285664907963
1.0032391513529704
1.0032285694992307
1.0032663203002328
1.0032285785245558
1.0033252764723808
1.0032285815842628
1.0034114330671591
1.0032285326390618
1.0035102834927512
1.0032284366843067
1.0035936025814203
1.0073914943717834
1.0069496233636015
1.0073920479126848
1.0071608638033529
1.0073924034409154
1.0073213923383437
1.0073924260503564
1.0073852191361581
1.0073923881771985
1.0073950553595479
1.0073923741173789
1.0073936452003251
1.0073923715515298
1.0073926542684899
1.0073923712467712
1.0073924522854731
1.0073923712467712
1.0073926542684899
1.0073923715515298
1.0073936452003251
1.0073923741173789
1.0073950553595479
1.0073923881771985
1.0073852191361581
1.0073924260503564
1.0073213923383437
1.0073924034409154
1.0071608638033529
1.0073920479126848
1.0069496233636015
1.0073914943717834
1.006692850924285
1.011932724908214
1.0123661891142146
1.0119329867905513
1.0122340186487946
1.0119331107414624
1.0121076462672047
1.0119330923618508
1.0120069617299434
1.0119330575443612
1.0119550651062632
1.0119330453548228
1.0119377563973364
1.0119330431127247
1.0119338012705843
1.0119330428420183
1.0119332259290601
1.0119330428420183
1.0119338012705843
1.0119330431127247
1.0119377563973364
1.0119330453548228
1.0119550651062632
1.0119330575443612
1.0120069617299434
1.0119330923618508
1.0121076462672047
1.0119331107414624
1.0122340186487946
1.0119329867905513
1.0123661891142146
1.011932724908214
1.0124316508531859
1.022923823647065
1.0231267363016572
1.0229243189616219
1.0231321629995598
1.0229245417060524
1.0230877049091378
1.0229245111652923
1.0230065783812494
1.0229244489240055
1.0229513346170662
1.0229244264341557
1.0229305059137015
1.0229244221955369
1.0229254340912817
1.0229244216750772
1.0229246711271349
1.0229244216750772
1.0229254340912817
1.0229244221955369
1.0229305059137015
1.0229244264341557
1.0229513346170662
1.0229244489240055
1.0230065783812494
1.0229245111652923
1.0230877049091378
1.0229245417060524
1.0231321629995598
1.0229243189616219
1.0231267363016572
1.022923823647065
1.0229773699100257
1.0415402280089705
1.0421168398091818
1.0415409271201697
1.0419501908316944
1.041541150229863
1.0417983119764185
1.0415410672798786
1.0416586356143933
1.0415409620324394
1.0415779692738805
1.0415409247776046
1.041549138872687
1.0415409177353996
1.0415422707155659
1.0415409168648266
1.0415412481008495
1.0415409168648266
1.0415422707155659
1.0415409177353996
1.041549138872687
1.0415409247776046
1.0415779692738805
1.0415409620324394
1.0416586356143933
1.0415410672798786
1.0417983119764185
1.041541150229863
1.0419501908316944
1.0415409271201697
1.0421168398091818
1.0415402280089705
1.0420877279156189
1.0754136161025489
1.0759978917702728
1.0754147481509635
1.0758403904022857
1.0754149866415357
1.0757005482893838
1.0754148333213731
1.0755515996603862
1.0754146696079721
1.0754587798753965
1.0754146121612531
1.0754245039909875
1.0754146012730172
1.0754162332832808
1.0754145999232632
1.0754149980956125
1.0754145999232632
1.0754162332832808
1.0754146012730172
1.0754245039909875
1.0754146121612531
1.0754587798753965
1.0754146696079721
1.0755515996603862
1.0754148333213731
1.0757005482893838
1.0754149866415357
1.0758403904022857
1.0754147481509635
1.0759978917702728
1.0754136161025489
1.0758581800212434
1.1322651393973628
1.1330174230616821
1.132266908651796
1.132768183971812
1.1322670655829035
1.1325963542060851
1.132266798031202
1.1324247239405911
1.1322665598049972
1.1323173952874057
1.1322664783619498
1.1322777794186705
1.1322664630972743
1.132268300415991
1.1322664612218181
1.1322669015614391
1.1322664612218181
1.132268300415991
1.1322664630972743
1.1322777794186705
1.1322664783619498
1.1323173952874057
1.1322665598049972
1.1324247239405911
1.132266798031202
1.1325963542060851
1.1322670655829035
1.132768183971812
1.132266908651796
1.1330174230616821
1.1322651393973628
1.1329642401978293
1.2216271643113465
1.2224401834814269
1.2216296203659229
1.2221578529405142
1.2216295837750626
1.2219864825356459
1.2216291743485705
1.2218025890752646
1.2216288565086726
1.2216842453827206
1.221628751712678
1.2216408122941702
1.2216287325719999
1.2216306363710319
1.2216287302745861
1.2216291715800454
1.2216287302745861
1.2216306363710319
1.2216287325719999
1.2216408122941702
1.221628751712678
1.2216842453827206
1.2216288565086726
1.2218025890752646
1.2216291743485705
1.2219864825356459
1.2216295837750626
1.2221578529405142
1.2216296203659229
1.2224401834814269
1.2216271643113465
1.2227001388253087
1.3466292527642474
1.3474618181136424
1.3466320995397931
1.347179148524936
1.3466318030389965
1.3470112416099542
1.3466312583193236
1.3468149847275583
1.346630875934979
1.3466880634840088
1.3466307555463626
1.34664272765963
1.3466307344387825
1.3466325331173037
1.3466307320039079
1.3466311271475502
1.3466307320039079
1.3466325331173037
1.3466307344387825
1.34664272765963
1.3466307555463626
1.3466880634840088
1.346630875934979
1.3468149847275583
1.3466312583193236
1.3470112416099542
1.3466318030389965
1.347179148524936
1.3466320995397931
1.3474618181136424
1.3466292527642474
1.3486451353339457
1.4965967754417817
1.4973662521115338
1.4965995406920896
1.497141455066987
1.496599102998702
1.4969891538682294
1.4965984989146928
1.4967842667606992
1.4965980952277
1.4966532650744755
1.4965979752646494
1.4966088207972088
1.4965979555309203
1.4965994700000385
1.4965979533978202
1.4965982618643874
1.4965979533978202
1.4965994700000385
1.4965979555309203
1.4966088207972088
1.4965979752646494
1.4966532650744755
1.4965980952277
1.4967842667606992
1.4965984989146928
1.4969891538682294
1.496599102998702
1.497141455066987
1.4965995406920896
1.4973662521115338
1.4965967754417817
1.5
1.6468975058878068
1.6475770633600033
1.6468997191115409
1.6474349141896611
1.6468995049694595
1.6472933151604776
1.6468989746790075
1.6470763046411645
1.6468986198383213
1.646947102027766
1.6468985226142223