# vtk DataFile Version 3.0
Euler density step 342
ASCII
DATASET STRUCTURED_POINTS
DIMENSIONS 32 32 32
ORIGIN 0 0 0
SPACING 0.3125 0.3125 0.3125
POINT_DATA 32768
SCALARS density double 1
LOOKUP_TABLE default
1.0067308422717296
1.0020253821881269
1.0067457283999433
1.0040702949771965
1.0067469267823721
1.0055855369436584
1.0067439906903206
1.0064039385944377
1.0067426517280109
1.0066756254697613
1.0067424015699353
1.0067331502534904
1.006742374494616
1.00674143812299
1.0067423725047346
1.0067422305882114
1.0067423725047346
1.00674143812299
1.006742374494616
1.0067331502534904
1.0067424015699353
1.0066756254697613
1.0067426517280109
1.0064039385944377
1.0067439906903206
1.0055855369436584
1.0067469267823721
1.0040702949771965
1.0067457283999433
1.0020253821881269
1.0067308422717296
1.0000453978687025
1.0000680965381854
1.0000812014196172
1.0000680638425672
1.0000745562872428
1.0000680569293507
1.0000706129282393
1.0000680608019086
1.0000688092278482
1.0000680631376364
1.0000682179349443
1.0000680636509309
1.0000680863894578
1.0000680637137211
1.0000680661666879
1.0000680637186574
1.0000680641132356
1.0000680637186574
1.0000680661666879
1.0000680637137211
1.0000680863894578
1.0000680636509309
1.0000682179349443
1.0000680631376364
1.0000688092278482
1.0000680608019086
1.0000706129282393
1.0000680569293507
1.0000745562872428
1.0000680638425672
1.0000812014196172
1.0000680965381854
1.0000848110417238
1.0060823732735302
1.0021922494656761
1.0060901801640183
1.0039214405945658
1.0060916583192536
1.0052381234239169
1.0060904076714243
1.0058697890864476
1.0060898675546566
1.0060514811959724
1.006089778902268
1.0060850700108817
1.0060897704381357
1.0060893441184733
1.0060897698864719
1.0060897116246112
1.0060897698864719
1.0060893441184733
1.0060897704381357
1.0060850700108817
1.006089778902268
1.0060514811959724
1.0060898675546566
1.0058697890864476
1.0060904076714243
1.0052381234239169
1.0060916583192536
1.0039214405945658
1.0060901801640183
1.0021922494656761
1.0060823732735302
1.0001584362191025
1.0002492645172132
1.0002766165720107
1.0002492672188585
1.0002614173928617
1.0002492634960296
1.0002533274716374
1.0002492631875259
1.0002502487559894
1.0002492635376015
1.0002494348049376
1.0002492636305458
1.0002492853102547
1.0002492636413745
1.0002492657037436
1.0002492636421023
1.0002492639413956
1.0002492636421023
1.0002492657037436
1.0002492636413745
1.0002492853102547
1.0002492636305458
1.0002494348049376
1.0002492635376015
1.0002502487559894
1.0002492631875259
1.0002533274716374
1.0002492634960296
1.0002614173928617
1.0002492672188585
1.0002766165720107
1.0002492645172132
1.0002959571135133
1.0045094679498481
1.002022210787493
1.0045122381622051
1.0033080710352611
1.0045128954881033
1.0041205717622692
1.0045126534405593
1.0044282188260476
1.0045125540424578
1.0045000920909446
1.0045125395739698
1.004511220632974
1.0045125383397941
1.0045124340542957
1.0045125382688118
1.004512525684891
1.0045125382688118
1.0045124340542957
1.0045125383397941
1.004511220632974
1.0045125395739698
1.0045000920909446
1.0045125540424578
1.0044282188260476
1.0045126534405593
1.0041205717622692
1.0045128954881033
1.0033080710352611
1.0045122381622051
1.002022210787493
1.0045094679498481
1.0005527786369237
1.0008784104042807
1.0009685369335661
1.0008784213719299
1.0009177122078987
1.0008784224225633
1.0008906992816857
1.0008784218471329
1.0008811250865839
1.0008784217092304
1.0008788487785432
1.0008784216948474
1.000878471587531
1.0008784216937727
1.0008784261545665
1.0008784216936946
1.0008784223136251
1.0008784216936946
1.0008784261545665
1.0008784216937727
1.000878471587531
1.0008784216948474
1.0008788487785432
1.0008784217092304
1.0008811250865839
1.0008784218471329
1.0008906992816857
1.0008784224225633
1.0009177122078987
1.0008784213719299
1.0009685369335661
1.0008784104042807
1.001032231036755
1.0035245777478072
1.0026283715979378
1.0035252101498231
1.0031681663211356
1.0035253709970406
1.0034325757191178
1.0035253519785918
1.0035094655356225
1.0035253423413495
1.0035234853861672
1.0035253410066862
1.0035251883594551
1.003525340902488
1.0035253319883879
1.0035253408973368
1.003525340185468
1.0035253408973368
1.0035253319883879
1.003525340902488
1.0035251883594551
1.0035253410066862
1.0035234853861672
1.0035253423413495
1.0035094655356225
1.0035253519785918
1.0034325757191178
1.0035253709970406
1.0031681663211356
1.0035252101498231
1.0026283715979378
1.0035245777478072
1.0019267346633276
1.0031743471560324
1.0034274771279053
1.0031743831288793
1.0032874054432026
1.0031743905231165
1.0032102376302663
1.0031743884228048
1.0031823457599225
1.003174387595557
1.0031756513277335
1.0031743874788932
1.0031745357668935
1.0031743874689496
1.0031744007842287
1.003174387468343
1.0031743893266822
1.003174387468343
1.0031744007842287
1.0031743874689496
1.0031745357668935
1.0031743874788932
1.0031756513277335
1.003174387595557
1.0031823457599225
1.0031743884228048
1.0032102376302663
1.0031743905231165
1.0032874054432026
1.0031743831288793
1.0034274771279053
1.0031743471560324
1.0035936025814203
1.0065988555802032
1.0067164043649099
1.0065990142512378
1.0066832418755822
1.0065990517470447
1.0066353916675896
1.0065990469495079
1.0066087584886112
1.0065990444666442
1.0066007728600304
1.0065990441043045
1.006599262155804
1.0065990440738575
1.0065990646134682
1.0065990440721002
1.0065990470318886
1.0065990440721002
1.0065990646134682
1.0065990440738575
1.006599262155804
1.0065990441043045
1.0066007728600304
1.0065990444666442
1.0066087584886112
1.0065990469495079
1.0066353916675896
1.0065990517470447
1.0066832418755822
1.0065990142512378
1.0067164043649099
1.0065988555802032
1.006692850924285
1.0115132865487619
1.0120923956673535
1.0115134513855502
1.011782271749428
1.0115134806035921
1.0116021154937269
1.0115134661331746
1.0115337698165507
1.0115134608751457
1.011516762709461
1.011513460128963
1.0115138544017195
1.0115134600643814
1.0115134959260512
1.0115134600603661
1.011513465112146
1.0115134600603661
1.0115134959260512
1.0115134600643814
1.0115138544017195
1.011513460128963
1.011516762709461
1.0115134608751457
1.0115337698165507
1.0115134661331746
1.0116021154937269
1.0115134806035921
1.011782271749428
1.0115134513855502
1.0120923956673535
1.0115132865487619
1.0124316508531859
1.0218080033577543
1.0225846367793405
1.0218083378058513
1.0221838889044599
1.0218083890309584
1.0219365669916722
1.0218083548669763
1.0218384201247028
1.0218083428871481
1.02181330685748
1.0218083411858134
1.0218089395494627
1.0218083410377368
1.0218083957722608
1.0218083410284533
1.021808348762985
1.0218083410284533
1.0218083957722608
1.0218083410377368
1.0218089395494627
1.0218083411858134
1.02181330685748
1.0218083428871481
1.0218384201247028
1.0218083548669763
1.0219365669916722
1.0218083890309584
1.0221838889044599
1.0218083378058513
1.0225846367793405
1.0218080033577543
1.0229773699100257
1.0403840793186299
1.0415167084720962
1.040384710683024
1.0409276919751571
1.0403847810240583
1.0405699742314753
1.0403847037891365
1.0404282028710479
1.0403846782650652
1.0403918647694146
1.0403846746785574
1.0403855402125579
1.0403846743665837
1.0403847533571946
1.0403846743469249
1.0403846854710466
1.0403846743469249
1.0403847533571946
1.0403846743665837
1.0403855402125579
1.0403846746785574
1.0403918647694146
1.0403846782650652
1.0404282028710479
1.0403847037891365
1.0405699742314753
1.0403847810240583
1.0409276919751571
1.040384710683024
1.0415167084720962
1.0403840793186299
1.0420877279156189
1.0736506109331758
1.0751585461521342
1.0736517708932654
1.074381254249152
1.0736518433873634
1.073903080734304
1.0736516831389415
1.0737109388912003
1.0736516331490027
1.0736614094169816
1.0736516262383198
1.0736527972746215
1.0736516256413082
1.0736517316182386
1.0736516256037478
1.0736516403768417
1.0736516256037478
1.0736517316182386
1.0736516256413082
1.0736527972746215
1.0736516262383198
1.0736614094169816
1.0736516331490027
1.0737109388912003
1.0736516831389415
1.073903080734304
1.0736518433873634
1.074381254249152
1.0736517708932654
1.0751585461521342
1.0736506109331758
1.0758581800212434
1.1301049012492641
1.1320793453152127
1.1301069459715583
1.1310611111072804
1.1301069516185716
1.1304357434243493
1.1301066418743497
1.1301837423549059
1.1301065517017104
1.1301191197570151
1.1301065395824124
1.1301080200619282
1.130106538553356
1.1301066698541469
1.1301065384893485
1.1301065563911779
1.1301065384893485
1.1301066698541469
1.130106538553356
1.1301080200619282
1.1301065395824124
1.1301191197570151
1.1301065517017104
1.1301837423549059
1.1301066418743497
1.1304357434243493
1.1301069516185716
1.1310611111072804
1.1301069459715583
1.1320793453152127
1.1301049012492641
1.1329642401978293
1.2190146177702321
1.2215210239203906
1.2190180042929168
1.2202266335396996
1.219017785446767
1.2194321264797701
1.2190172325880648
1.2191128865396994
1.2190170841185348
1.2190323009757182
1.2190170650063874
1.2190188034621219
1.2190170634337278
1.2190172122551657
1.2190170633383108
1.2190170828695233
1.2190170633383108
1.2190172122551657
1.2190170634337278
1.2190188034621219
1.2190170650063874
1.2190323009757182
1.2190170841185348
1.2191128865396994
1.2190172325880648
1.2194321264797701
1.219017785446767
1.2202266335396996
1.2190180042929168
1.2215210239203906
1.2190146177702321
1.2227001388253087
1.3438398680446155
1.3468972598193383
1.3438449556835521
1.345319897517089
1.3438442521357976
1.3443448099506021
1.3438433575026298
1.3439559895121931
1.3438431377685029
1.343860394568406
1.3438431110660825
1.3438449935331993
1.3438431089688525
1.3438432617937686
1.3438431088467486
1.3438431277878513
1.3438431088467486
1.3438432617937686
1.3438431089688525
1.3438449935331993
1.3438431110660825
1.343860394568406
1.3438431377685029
1.3439559895121931
1.3438433575026298
1.3443448099506021
1.3438442521357976
1.345319897517089
1.3438449556835521
1.3468972598193383
1.3438398680446155
1.3486451353339457
1.4937668179073176
1.4972954594263959
1.4937736198738212
1.4954876573201386
1.4937721638329944
1.4943454334305897
1.4937708862149366
1.4938952123127636
1.4937706014981722
1.493788677700572
1.4937705694284349
1.4937724210994692
1.4937705670760268
1.4937707071589648
1.493770566947759
1.493770583058736
1.493770566947759
1.4937707071589648
1.4937705670760268
1.4937724210994692
1.4937705694284349
1.493788677700572
1.4937706014981722
1.4938952123127636
1.4937708862149366
1.4943454334305897
1.4937721638329944
1.4954876573201386
1.4937736198738212
1.4972954594263959
1.4937668179073176
1.5
1.6437218744903894
1.6475669701660809
1.6437297869626739
1.6456099739003576
1.6437276383514328
1.6443389302391722
1.6437261179315372
1.643851789324265
1.6437258130819588
1.64374289222799
1.6437257818335511
1.6437274042961889
1.6437257797314433
1.64372589298705
1.6437257796258358
1.643725791620654
1.6437257796258358
1.64372589298705
1.6437257797314433
1.6437274042961889
1.6437257818335511
1.64374289222799
1.6437258130819588
1.643851789324265
1.6437261179315372
1.6443389302391722
1.6437276383514328
1.6456099739003576
1.6437297869626739
1.6475669701660809
1.6437218744903894
1.6513548646660543
1.7689032011818349
1.7728840600406961
1.7689110076453687
1.7708322995510979
1.7689087283674154
1.7695019998764843
1.7689072914685435
1.7690211591603835
1.7689070317480784
1.7689213869918328
1.7689070075693887
1.7689082695697451
1.7689070060767944
1.7689070875012869
1.7689070060074989
1.7689070139804923
1.7689070060074989
1.7689070875012869
1.7689070060767944
1.7689082695697451
1.7689070075693887
1.7689213869918328
1.7689070317480784
1.7690211591603835
1.7689072914685435
1.7695019998764843
1.7689087283674154
1.7708322995510979
1.7689110076453687
1.7728840600406961
1.7689032011818349
1.7772998611746911
1.8587984931494033
1.8626854407714863
1.8588050508126031
1.8606009575146598
1.8588032321065171
1.8593204482506616
1.8588021497484042
1.8588943352164204
1.8588019713147728
1.8588127793528395
1.8588019560612101
1.8588028416650271
1.8588019551871686
1.8588020085323118
1.8588019551492545
1.8588019600345962
1.8588019551492545
1.8588020085323118
1.8588019551871686
1.8588028416650271
1.8588019560612101
1.8588127793528395
1.8588019713147728
1.8588943352164204
1.8588021497484042
1.8593204482506616
1.8588032321065171
1.8606009575146598
1.8588050508126031
1.8626854407714863
1.8587984931494033
1.8670357598021707
1.9168452747413713
1.9203442235438344
1.9168500048560322
1.9183683161062532
1.9168488547850182
1.9172549083209081
1.9168481859429505
1.916915706595385
1.9168480838302215
1.9168555149859849
1.9168480756933608
1.9168486500782773
1.9168480752545884
1.9168481080013131
1.916848075236586
1.9168480780827197
1.916848075236586
1.9168481080013131
1.9168480752545884
1.9168486500782773
1.9168480756933608
1.9168555149859849
1.9168480838302215
1.916915706595385
1.9168481859429505
1.9172549083209081
1.9168488547850182
1.9183683161062532
1.9168500048560322
1.9203442235438344
1.9168452747413713
1.9241418199787566
1.9519622467880491
1.9548426851640004
1.9519652063483868
1.953132081384144
1.9519646059794398
1.9522557948940809
1.9519642553749523
1.9520098630867408
1.9519642050268589
1.9519689723325593
1.9519642012312717
1.9519645533292431
1.9519642010361462
1.9519642202974576
1.9519642010284874
1.9519642026399389
1.9519642010284874
1.9519642202974576
1.9519642010361462
1.9519645533292431
1.9519642012312717
1.9519689723325593
1.9519642050268589
1.9520098630867408
1.9519642553749523
1.9522557948940809
1.9519646059794398
1.953132081384144
1.9519652063483868
1.9548426851640004
1.9519622467880491
1.9579122720843811
1.9726714006163242
1.9747906743093997
1.9726730237241856
1.9734872397021963
1.9726727601617797
1.9728653559426694
1.9726726001326986
1.9727014166779504
1.9726725781493386
1.9726754765079972
1.9726725765590918
1.9726727836693594
1.9726725764802535
1.9726725874854085
1.9726725764772637
1.9726725773743159
1.9726725764772637
1.9726725874854085
1.9726725764802535
1.9726727836693594
1.9726725765590918
1.9726754765079972
1.9726725781493386
1.9727014166779504
1.9726726001326986
1.9728653559426694
1.9726727601617797
1.9734872397021963
1.9726730237241856
1.9747906743093997
1.9726714006163242
1.9770226300899743
1.9844168166037681
1.9859262287209669
1.9844176158076343
1.9849612980913032
1.9844175120605341
1.9845393739213424
1.984417445955367
1.9844349470569442
1.9844174372057739
1.9844191425896611
1.9844174365935792
1.984417555406776
1.9844174365640908
1.9844174427459447
1.9844174365629994
1.984417437057941
1.9844174365629994
1.9844174427459447
1.9844174365640908
1.984417555406776
1.9844174365935792
1.9844191425896611
1.9844174372057739
1.9844349470569442
1.984417445955367
1.9845393739213424
1.9844175120605341
1.9849612980913032
1.9844176158076343
1.9859262287209669
1.9844168166037681
1.9875683491468141
1.9919957071546017
1.9926531193494978
1.9919961181641235
1.9922536163996909
1.9919960955687854
1.9920568766530939
1.9919960714633815
1.9920050481582359
1.9919960681608109
1.9919969557378239
1.9919960679272517
1.9919961302096945
1.9919960679160305
1.9919960711661979
1.9919960679156241
1.991996068175965
1.9919960679156241
1.9919960711661979
1.9919960679160305
1.9919961302096945
1.9919960679272517
1.9919969557378239
1.9919960681608109
1.9920050481582359
1.9919960714633815
1.9920568766530939
1.9919960955687854
1.9922536163996909
1.9919961181641235
1.9926531193494978
1.9919957071546017
1.993307149075715
1.9950870183137086
1.9957047544163622
1.9950871628371343
1.995292920398424
1.9950871512437751
1.9951302883952566
1.995087142544945
1.9950930295228566
1.9950871414503675
1.99508769329989
1.9950871413775204
1.9950871786851814
1.9950871413741653
1.9950871432691604
1.995087141374045
1.9950871415228115
1.995087141374045
1.9950871432691604
1.9950871413741653
1.9950871786851814
1.9950871413775204
1.99508769329989
1.9950871414503675
1.9950930295228566
1.995087142544945
1.9951302883952566
1.9950871512437751
1.995292920398424
1.9950871628371343
1.9957047544163622
1.9950870183137086
1.9964063974185799
2.0000120131910939
1.9990075661226641
2.0000127743120619
1.9997076629417065
2.0000127703018444
1.9999587409677249
2.0000127350573456
2.0000067560047081
2.00001272997077
2.0000122870442261
2.0000127295921986
2.0000127064694273
2.0000127295731671
2.0000127286919129
2.0000127295724535
2.0000127295225871
2.0000127295724535
2.0000127286919129
2.0000127295731671
2.0000127064694273
2.0000127295921986
2.0000122870442261
2.00001272997077
2.0000067560047081
2.0000127350573456
1.9999587409677249
2.0000127703018444
1.9997076629417065
2.0000127743120619
1.9990075661226641
2.0000120131910939
1.9980732653366724
1.9985077619474736
1.9987282600087739
1.9985077758525769
1.9985814837901841
1.9985077758382896
1.9985233209364179
1.998507776259657
1.9985099055794495
1.9985077763967325
1.9985079761211353
1.9985077764124519
1.998507789887898
1.9985077764134864
1.9985077770952835
1.9985077764135322
1.9985077764667758
1.9985077764135322
1.9985077770952835
1.9985077764134864
1.998507789887898
1.9985077764124519
1.9985079761211353
1.9985077763967325
1.9985099055794495
1.998507776259657
1.9985233209364179
1.9985077758382896
1.9985814837901841
1.9985077758525769
1.9987282600087739
1.9985077619474736
1.9989677689632452
2.0045171694109554
2.0015100471220895
2.0045210664740014
2.003327471588296
2.0045204806313071
2.0042425754704456
2.0045200844233202
2.0044802525601262
2.0045200288915757
2.0045162395406657
2.0045200247759314
2.0045197701147157
2.0045200245665491
2.0045200118734092
2.0045200245584684
2.0045200235888205
2.0045200245584684
2.0045200118734092
2.0045200245665491
2.0045197701147157
2.0045200247759314
2.0045162395406657
2.0045200288915757
2.0044802525601262
2.0045200844233202
2.0042425754704456
2.0045204806313071
2.003327471588296
2.0045210664740014
2.0015100471220895
2.0045171694109554
1.9994472213630763
1.9995894485584762
1.9996552960628704
1.9995894224955826
1.9996156872636637
1.9995894297345271
1.9995962718224283
1.9995894357585484
1.9995905717839915
1.9995894369374816
1.9995895621152768
1.9995894370540468
1.9995894467005242
1.9995894370613989
1.9995894376065466
1.9995894370617322
1.9995894371084184
1.9995894370617322
1.9995894376065466
1.9995894370613989
1.9995894467005242
1.9995894370540468
1.9995895621152768
1.9995894369374816
1.9995905717839915
1.9995894357585484
1.9995962718224283
1.9995894297345271
1.9996156872636637
1.9995894224955826
1.9996552960628704
1.9995894485584762
1.999704042886487
2.0067941221483196
2.0027610039193884
2.0068042437011759
2.0049249173701016
2.0068004476920587
2.0062681254714172
2.0067987113184214
2.0067074939427907
2.0067984500157743
2.0067883039482335
2.0067984289604914
2.0067976463370574
2.0067984278174498
2.0067983836794019
2.006798427770756
2.0067984240019658
2.006798427770756
2.0067983836794019
2.0067984278174498
2.0067976463370574
2.0067984289604914
2.0067883039482335
2.0067984500157743
2.0067074939427907
2.0067987113184214
2.0062681254714172
2.0068004476920587
2.0049249173701016
2.0068042437011759
2.0027610039193884
2.0067941221483196
1.9998415637808975
1.9999151889582765
1.9999151889582765
1.9999151889582765
1.9999151889582765
1.9999151889582765
1.9999151889582765
1.9999151889582765
1.9999151889582765
1.9999151889582765
1.9999151889582765
1.9999151889582765
1.9999151889582765
1.9999151889582765
1.9999151889582765
1.9999151889582765
1.9999151889582765
1.9999151889582765
1.9999151889582765
1.9999151889582765
1.9999151889582765
1.9999151889582765
1.9999151889582765
1.9999151889582765
1.9999151889582765
1.9999151889582765
1.9999151889582765
1.9999151889582765
1.9999151889582765
1.9999151889582765
1.9999151889582765
1.9999151889582765
1.9999151889582765
1.0040311777492092
1.0020309545134807
1.0040435721724776
1.0027127000935192
1.004043208856191
1.0032748108267566
1.0040406936145092
1.003749207972872
1.0040392841435992
1.0039682716253941
1.0040389454282521
1.0040272174715901
1.0040388988073656
1.0040375030721842
1.0040388944698293
1.0040386490213591
1.0040388944698293
1.0040375030721842
1.0040388988073656
1.0040272174715901
1.0040389454282521
1.0039682716253941
1.0040392841435992
1.003749207972872
1.0040406936145092
1.0032748108267566
1.004043208856191
1.0027127000935192
1.0040435721724776
1.0020309545134807
1.0040311777492092
1.0000453978687025
1.0000735336139353
1.0000829392319532
1.0000735052708425
1.0000780919223287
1.000073500035964
1.000075128262482
1.0000735035058668
1.0000739748728125
1.0000735057522416
1.000073614284227
1.0000735063454449
1.0000735251790243
1.0000735064358068
1.0000735088845907
1.0000735064449493
1.0000735069180615
1.0000735064449493
1.0000735088845907
1.0000735064358068
1.0000735251790243
1.0000735063454449
1.000073614284227
1.0000735057522416
1.0000739748728125
1.0000735035058668
1.000075128262482
1.000073500035964
1.0000780919223287
1.0000735052708425
1.0000829392319532
1.0000735336139353
1.0000848110417238
1.0025222054572174
1.0008252180797221
1.0025282951134609
1.0013006037647683
1.0025295148030886
1.001880183085808
1.0025283740892459
1.0023140666203398
1.0025277124773357
1.002482157645298
1.0025275710638641
1.0025209248782585
1.0025275537137655
1.0025268474217663
1.0025275522474799
1.0025274399555086
1.0025275522474799
1.0025268474217663
1.0025275537137655
1.0025209248782585
1.0025275710638641
1.002482157645298
1.0025277124773357
1.0023140666203398
1.0025283740892459
1.001880183085808
1.0025295148030886
1.0013006037647683
1.0025282951134609
1.0008252180797221
1.0025222054572174
1.0001584362191025
1.0002664720935597
1.0002848131761242
1.0002664853978558
1.0002743481771508
1.0002664819560783
1.0002690320187744
1.0002664799412602
1.0002671380834545
1.0002664797590384
1.0002666113070864
1.000266479797095
1.0002664995630568
1.000266479807967
1.0002664820538998
1.0002664798092935
1.0002664801952597
1.0002664798092935
1.0002664820538998
1.000266479807967
1.0002664995630568
1.000266479797095
1.0002666113070864
1.0002664797590384
1.0002671380834545
1.0002664799412602
1.0002690320187744
1.0002664819560783
1.0002743481771508
1.0002664853978558
1.0002848131761242
1.0002664720935597
1.0002959571135133
1.0025433522669775
1.0010873321360303
1.0025456430561883
1.0016483073923674
1.0025463071295624
1.0021752234159498
1.0025460209669195
1.0024480275795096
1.002545865910875
1.0025285804992621
1.0025458367921649
1.0025436833892174
1.0025458335618416
1.0025456342428734
1.002545833309807
1.0025458052156271
1.002545833309807
1.0025456342428734
1.0025458335618416
1.0025436833892174
1.0025458367921649
1.0025285804992621
1.002545865910875
1.0024480275795096
1.0025460209669195
1.0021752234159498
1.0025463071295624
1.0016483073923674
1.0025456430561883
1.0010873321360303
1.0025433522669775
1.0005527786369237
1.0009358276018709
1.000997699207872
1.0009358421169741
1.0009658144778211
1.0009358435614559
1.0009465579652967
1.0009358424057508
1.0009385568249731
1.0009358420607961
1.0009363323800282
1.0009358420168035
1.0009359068984118
1.0009358420134991
1.0009358485305682
1.0009358420133432
1.0009358430211339
1.0009358420133432
1.0009358485305682
1.0009358420134991
1.0009359068984118
1.0009358420168035
1.0009363323800282
1.0009358420607961
1.0009385568249731
1.0009358424057508
1.0009465579652967
1.0009358435614559
1.0009658144778211
1.0009358421169741
1.000997699207872
1.0009358276018709
1.001032231036755
1.0030716042289101
1.0023399040495298
1.0030722348338379
1.0027176433696179
1.0030724246263867
1.0029596849535214
1.0030723908966743
1.0030489775962994
1.0030723708980929
1.0030690529033193
1.0030723673641233
1.0030720316656725
1.0030723669931216
1.0030723418011773
1.0030723669657196
1.0030723641132964
1.0030723669657196
1.0030723418011773
1.0030723669931216
1.0030720316656725
1.0030723673641233
1.0030690529033193
1.0030723708980929
1.0030489775962994
1.0030723908966743
1.0029596849535214
1.0030724246263867
1.0027176433696179
1.0030722348338379
1.0023399040495298
1.0030716042289101
1.0019267346633276
1.0033508847643979
1.0035165387517206
1.0033509183625891
1.0034357802382101
1.0033509252233355
1.0033824201993855
1.0033509226147093
1.0033590331333413
1.0033509214516294
1.0033523936349953
1.0033509212577767
1.0033511161017967
1.0033509212381728
1.0033509407848251
1.003350921236752
1.0033509242554364
1.003350921236752
1.0033509407848251
1.0033509212381728
1.0033511161017967
1.0033509212577767
1.0033523936349953
1.0033509214516294
1.0033590331333413
1.0033509226147093
1.0033824201993855
1.0033509252233355
1.0034357802382101
1.0033509183625891
1.0035165387517206
1.0033508847643979
1.0035936025814203
1.0068439708465025
1.0068089869362442
1.0068441381724369
1.0068612209702827
1.0068441824900807
1.0068636170633534
1.0068441758556839
1.0068517457889898
1.006844171788063
1.0068458698810545
1.0068441710663296
1.0068444251886983
1.0068441709911566
1.0068441985306078
1.0068441709856628
1.006844175457003
1.0068441709856628
1.0068441985306078
1.0068441709911566
1.0068444251886983
1.0068441710663296
1.0068458698810545
1.006844171788063
1.0068517457889898
1.0068441758556839
1.0068636170633534
1.0068441824900807
1.0068612209702827
1.0068441381724369
1.0068089869362442
1.0068439708465025
1.006692850924285
1.0119846802337076
1.0123171999425209
1.0119848092677473
1.0121655450186877
1.0119848306422128
1.0120561896789413
1.0119848157861921
1.0120041024358299
1.0119848095026251
1.0119884343266186
1.011984808433416
1.0119853001586478
1.0119848083227243
1.0119848585253468
1.0119848083145253
1.011984816162818
1.0119848083145253
1.0119848585253468
1.0119848083227243
1.0119853001586478
1.011984808433416
1.0119884343266186
1.0119848095026251
1.0120041024358299
1.0119848157861921
1.0120561896789413
1.0119848306422128
1.0121655450186877
1.0119848092677473
1.0123171999425209
1.0119846802337076
1.0124316508531859
1.022539771119801
1.022917299133433
1.0225400193536966
1.0227639057824982
1.0225400533750029
1.0226350624600706
1.022540021470326
1.0225669068587471
1.0225400082554437
1.0225452033252593
1.0225400059891097
1.0225407225645744
1.0225400057525702
1.0225400796365172
1.022540005734935
1.0225400173480481
1.022540005734935
1.0225400796365172
1.0225400057525702
1.0225407225645744
1.0225400059891097
1.0225452033252593
1.0225400082554437
1.0225669068587471
1.022540021470326
1.0226350624600706
1.0225400533750029
1.0227639057824982
1.0225400193536966
1.022917299133433
1.022539771119801
1.0229773699100257
1.0414275177894903
1.0419764886629888
1.0414279437055121
1.0417413496138144
1.0414279760145095
1.0415597887666119
1.0414279101912838
1.0414652581845574
1.0414278845142872
1.0414351169430398
1.0414278801422567
1.0414288781819285
1.0414278796858654
1.0414279824135824
1.041427879651772
1.0414278957414242
1.041427879651772
1.0414279824135824
1.0414278796858654
1.0414288781819285
1.0414278801422567
1.0414351169430398
1.0414278845142872
1.0414652581845574
1.0414279101912838
1.0415597887666119
1.0414279760145095
1.0417413496138144
1.0414279437055121
1.0419764886629888
1.0414275177894903
1.0420877279156189
1.0750851859000532
1.0757494149787659
1.0750859074556829
1.075470862931647
1.0750859162764277
1.0752521571781219
1.0750857931728421
1.0751336650341548
1.0750857475812032
1.0750950707377982
1.0750857398967495
1.0750870241250425
1.0750857390980266
1.0750858703528157
1.07508573903858
1.075085759383102
1.07508573903858
1.0750858703528157
1.0750857390980266
1.0750870241250425
1.0750857398967495
1.0750950707377982
1.0750857475812032
1.0751336650341548
1.0750857931728421
1.0752521571781219
1.0750859162764277
1.075470862931647
1.0750859074556829
1.0757494149787659
1.0750851859000532
1.0758581800212434
1.1319452048164254
1.132746744803365
1.13194635274911
1.1324080031936521
1.1319462826736608
1.1321481450432553
1.1319460706857349
1.1320043875050363
1.1319459969184409
1.1319572696331079
1.1319459847609812
1.1319475140940705
1.131945983516947
1.131946136594141
1.1319459834256889
1.1319460065825551
1.1319459834256889
1.131946136594141
1.131945983516947
1.1319475140940705
1.1319459847609812
1.1319572696331079
1.1319459969184409
1.1320043875050363
1.1319460706857349
1.1321481450432553
1.1319462826736608
1.1324080031936521
1.13194635274911
1.132746744803365
1.1319452048164254
1.1329642401978293
1.2212168030736454
1.2221360474720979
1.2212184459633568
1.2217492229676754
1.2212182192653283
1.2214523460208886
1.2212178900595347
1.2212849726093999
1.2212177831270348
1.2212304661771816
1.2212177661309103
1.2212194329901427
1.221217764442486
1.2212179248817054
1.2212177643221291
1.2212177875561065
1.2212177643221291
1.2212179248817054
1.221217764442486
1.2212194329901427
1.2212177661309103
1.2212304661771816
1.2212177831270348
1.2212849726093999
1.2212178900595347
1.2214523460208886
1.2212182192653283
1.2217492229676754
1.2212184459633568
1.2221360474720979
1.2212168030736454
1.2227001388253087
1.3463039368447607
1.3473023726971205
1.3463059840092699
1.346891213092595
1.3463055454921087
1.3465646319445965
1.3463050950941615
1.3463776712927742
1.3463049586743205
1.3463181217090445
1.3463049380903476
1.3463065767386209
1.3463049361453077
1.3463050841778708
1.3463049360137092
1.3463049560345102
1.3463049360137092
1.3463050841778708
1.3463049361453077
1.3463065767386209
1.3463049380903476
1.3463181217090445
1.3463049586743205
1.3463776712927742
1.3463050950941615
1.3465646319445965
1.3463055454921087
1.346891213092595
1.3463059840092699
1.3473023726971205
1.3463039368447607
1.3486451353339457
1.4965506694242923
1.4975678988759302
1.4965528779794737
1.4971739584878827
1.4965522868010339
1.4968251665432522
1.4965517628359739
1.4966245484319562
1.4965516162590158
1.4965639219543627
1.4965515958586808
1.4965530085604348
1.496551594079979
1.4965517110351227
1.4965515939689769
1.4965516084393629
1.4965515939689769
1.4965517110351227
1.496551594079979
1.4965530085604348
1.4965515958586808
1.4965639219543627
1.4965516162590158
1.4966245484319562
1.4965517628359739
1.4968251665432522
1.4965522868010339
1.4971739584878827
1.4965528779794737
1.4975678988759302
1.4965506694242923
1.5
1.6471318650996392
1.6481506728304365
1.647133886356736
1.6477788734228074
1.6471333422505579
1.6474015475891746
1.6471328613271079
1.6471983043009006
1.6471327390060329
1.6471427746679723