# vtk DataFile Version 3.0
Euler density step 360
ASCII
DATASET STRUCTURED_POINTS
DIMENSIONS 32 32 32
ORIGIN 0 0 0
SPACING 0.3125 0.3125 0.3125
POINT_DATA 32768
SCALARS density double 1
LOOKUP_TABLE default
1.0070760081074492
1.0020327680477099
1.0070927617206415
1.0040901345309436
1.0070951207578092
1.005664580924942
1.0070918937393123
1.0066202163792681
1.0070899789804622
1.0069845639482427
1.0070895443814272
1.0070730405047117
1.0070894888616448
1.0070875936752803
1.0070894841119102
1.007089159400778
1.0070894841119102
1.0070875936752803
1.0070894888616448
1.0070730405047117
1.0070895443814272
1.0069845639482427
1.0070899789804622
1.0066202163792681
1.0070918937393123
1.005664580924942
1.0070951207578092
1.0040901345309436
1.0070927617206415
1.0020327680477099
1.0070760081074492
1.0000453978687025
1.0000610030919335
1.0000787860283344
1.0000609619968275
1.0000698753667474
1.0000609518904147
1.0000645822389422
1.0000609564251208
1.0000621027138412
1.0000609599757693
1.000061222924542
1.0000609609204414
1.0000610042644611
1.0000609610583753
1.0000609663326576
1.0000609610712774
1.000060962026327
1.0000609610712774
1.0000609663326576
1.0000609610583753
1.0000610042644611
1.0000609609204414
1.000061222924542
1.0000609599757693
1.0000621027138412
1.0000609564251208
1.0000645822389422
1.0000609518904147
1.0000698753667474
1.0000609619968275
1.0000787860283344
1.0000610030919335
1.0000848110417238
1.0064251288561403
1.0022026074067236
1.0064341666338106
1.0039158836207618
1.006436598173565
1.0053252048825987
1.0064350934724799
1.0061074464781059
1.0064342194824372
1.0063690768501707
1.0064340445100612
1.0064249303378963
1.0064340247648897
1.0064330846047378
1.0064340232583933
1.0064338774020254
1.0064340232583933
1.0064330846047378
1.0064340247648897
1.0064249303378963
1.0064340445100612
1.0063690768501707
1.0064342194824372
1.0061074464781059
1.0064350934724799
1.0053252048825987
1.006436598173565
1.0039158836207618
1.0064341666338106
1.0022026074067236
1.0064251288561403
1.0001584362191025
1.0002286487000103
1.0002687523014293
1.0002286513122587
1.0002470884951302
1.0002286456826495
1.000235130594332
1.0002286449541091
1.0002303388163536
1.0002286455836809
1.000228968555873
1.0002286457932867
1.0002286911110636
1.0002286458230081
1.000228650628965
1.0002286458254894
1.0002286466027301
1.0002286458254894
1.000228650628965
1.0002286458230081
1.0002286911110636
1.0002286457932867
1.000228968555873
1.0002286455836809
1.0002303388163536
1.0002286449541091
1.000235130594332
1.0002286456826495
1.0002470884951302
1.0002286513122587
1.0002687523014293
1.0002286487000103
1.0002959571135133
1.0049882555130336
1.0020722307758556
1.0049917876180214
1.0034435099714059
1.0049929035961258
1.0044215091902031
1.0049925615104602
1.0048520038950484
1.0049923714405919
1.0049686574050314
1.0049923380523038
1.0049894740443224
1.0049923346939711
1.0049920764543707
1.0049923344649845
1.0049922990166302
1.0049923344649845
1.0049920764543707
1.0049923346939711
1.0049894740443224
1.0049923380523038
1.0049686574050314
1.0049923714405919
1.0048520038950484
1.0049925615104602
1.0044215091902031
1.0049929035961258
1.0034435099714059
1.0049917876180214
1.0020722307758556
1.0049882555130336
1.0005527786369237
1.00083199907317
1.0009522928465087
1.000832016279867
1.0008874174876157
1.0008320186632622
1.0008507349602409
1.0008320176536316
1.0008365402590493
1.0008320173568754
1.0008328073050992
1.0008320173227372
1.0008321196810339
1.0008320173201977
1.0008320274915687
1.0008320173200216
1.0008320188886437
1.0008320173200216
1.0008320274915687
1.0008320173201977
1.0008321196810339
1.0008320173227372
1.0008328073050992
1.0008320173568754
1.0008365402590493
1.0008320176536316
1.0008507349602409
1.0008320186632622
1.0008874174876157
1.000832016279867
1.0009522928465087
1.00083199907317
1.001032231036755
1.0039409806014798
1.0027416931251334
1.0039419134536662
1.003410615760554
1.003942211750523
1.0037844838065568
1.0039421818627026
1.0039109896269358
1.0039421602518384
1.00393791499871
1.0039421566607447
1.0039417453399053
1.0039421563265285
1.0039421272629352
1.0039421563061566
1.0039421533216246
1.0039421563061566
1.0039421272629352
1.0039421563265285
1.0039417453399053
1.0039421566607447
1.00393791499871
1.0039421602518384
1.0039109896269358
1.0039421818627026
1.0037844838065568
1.003942211750523
1.003410615760554
1.0039419134536662
1.0027416931251334
1.0039409806014798
1.0019267346633276
1.003074671896262
1.0033968866895888
1.0030747260579203
1.0032278676077866
1.0030747402569269
1.0031276732963945
1.0030747370868724
1.0030877012167583
1.0030747354403893
1.0030770189988081
1.0030747351682681
1.0030750329654683
1.003074735141781
1.0030747649067595
1.0030747351399558
1.003074739756004
1.0030747351399558
1.0030747649067595
1.003074735141781
1.0030750329654683
1.0030747351682681
1.0030770189988081
1.0030747354403893
1.0030877012167583
1.0030747370868724
1.0031276732963945
1.0030747402569269
1.0032278676077866
1.0030747260579203
1.0033968866895888
1.003074671896262
1.0035936025814203
1.0066993342681243
1.0067694899491095
1.0066995851405478
1.0067777544007199
1.0066996595892896
1.0067427567564382
1.0066996535251291
1.0067134062708003
1.0066996485097452
1.0067024865004883
1.0066996476359442
1.0067000565532565
1.0066996475509582
1.0066996912077544
1.0066996475453576
1.006699654621545
1.0066996475453576
1.0066996912077544
1.0066996475509582
1.0067000565532565
1.0066996476359442
1.0067024865004883
1.0066996485097452
1.0067134062708003
1.0066996535251291
1.0067427567564382
1.0066996595892896
1.0067777544007199
1.0066995851405478
1.0067694899491095
1.0066993342681243
1.006692850924285
1.0113440662249742
1.0120486336475722
1.0113442941256054
1.0116930580533734
1.0113443484381128
1.011470134917672
1.0113443274951799
1.0113762467477538
1.0113443177308967
1.0113500955702592
1.0113443161032032
1.0113450851881043
1.011344315942033
1.0113443940089057
1.0113443159307194
1.0113443281769192
1.0113443159307194
1.0113443940089057
1.011344315942033
1.0113450851881043
1.0113443161032032
1.0113500955702592
1.0113443177308967
1.0113762467477538
1.0113443274951799
1.011470134917672
1.0113443484381128
1.0116930580533734
1.0113442941256054
1.0120486336475722
1.0113440662249742
1.0124316508531859
1.0216714419107309
1.0225686462351833
1.0216718918527037
1.022138933180081
1.0216719888108465
1.021847979494316
1.0216719408763617
1.021717980483005
1.0216719194168296
1.0216804191140627
1.0216719158299916
1.0216730614524467
1.0216719154725471
1.0216720326758584
1.021671915447256
1.0216719339193279
1.021671915447256
1.0216720326758584
1.0216719154725471
1.0216730614524467
1.0216719158299916
1.0216804191140627
1.0216719194168296
1.021717980483005
1.0216719408763617
1.021847979494316
1.0216719888108465
1.022138933180081
1.0216718918527037
1.0225686462351833
1.0216714419107309
1.0229773699100257
1.040153699959113
1.041471162778294
1.0401545186485495
1.0408282308928778
1.0401546582243515
1.0404068110484201
1.0401545511079797
1.0402204102839243
1.0401545067571965
1.0401666580530329
1.0401544994381544
1.0401561352064799
1.0401544987099063
1.0401546656743081
1.0401544986581717
1.0401545248897281
1.0401544986581717
1.0401546656743081
1.0401544987099063
1.0401561352064799
1.0401544994381544
1.0401666580530329
1.0401545067571965
1.0402204102839243
1.0401545511079797
1.0404068110484201
1.0401546582243515
1.0408282308928778
1.0401545186485495
1.041471162778294
1.040153699959113
1.0420877279156189
1.0734074981848305
1.0751233319784808
1.0734089678876795
1.0742950603943986
1.0734091415921601
1.0737447587492284
1.0734089237116198
1.0734971344597957
1.0734088394313086
1.0734251198250098
1.0734088257573102
1.0734110082509476
1.0734088244067435
1.0734090455327601
1.0734088243110509
1.0734088587292583
1.0734088243110509
1.0734090455327601
1.0734088244067435
1.0734110082509476
1.0734088257573102
1.0734251198250098
1.0734088394313086
1.0734971344597957
1.0734089237116198
1.0737447587492284
1.0734091415921601
1.0742950603943986
1.0734089678876795
1.0751233319784808
1.0734074981848305
1.0758581800212434
1.129828812972465
1.1320454825469177
1.1298313634085417
1.1309727984847446
1.1298315005729394
1.1302643853317464
1.1298310859935567
1.1299443773576594
1.1298309378510476
1.1298516263137783
1.129830914513678
1.1298336452329203
1.1298309122500498
1.1298311836578285
1.1298309120916412
1.1298309534503463
1.1298309120916412
1.1298311836578285
1.1298309122500498
1.1298336452329203
1.129830914513678
1.1298516263137783
1.1298309378510476
1.1299443773576594
1.1298310859935567
1.1302643853317464
1.1298315005729394
1.1309727984847446
1.1298313634085417
1.1320454825469177
1.129828812972465
1.1329642401978293
1.2187223669551752
1.2214975497789453
1.2187265470717725
1.2201521891036224
1.218726473762789
1.2192656277796352
1.2187257422717286
1.218864995938753
1.2187255031572339
1.2187503689865595
1.21872546713005
1.2187286554267951
1.2187254637475464
1.2187257700505121
1.2187254635169238
1.2187255085141988
1.2187254635169238
1.2187257700505121
1.2187254637475464
1.2187286554267951
1.21872546713005
1.2187503689865595
1.2187255031572339
1.218864995938753
1.2187257422717286
1.2192656277796352
1.218726473762789
1.2201521891036224
1.2187265470717725
1.2214975497789453
1.2187223669551752
1.2227001388253087
1.3435249687804949
1.346871629409983
1.3435312000530839
1.3452525211468169
1.3435306196550667
1.3441770381130931
1.3435294439277392
1.3436926462262266
1.3435290946924536
1.3435572321532971
1.3435290450905242
1.3435324980177716
1.3435290406497586
1.3435293559548864
1.343529040359275
1.3435290842123238
1.343529040359275
1.3435293559548864
1.3435290406497586
1.3435324980177716
1.3435290450905242
1.3435572321532971
1.3435290946924536
1.3436926462262266
1.3435294439277392
1.3441770381130931
1.3435306196550667
1.3452525211468169
1.3435312000530839
1.346871629409983
1.3435249687804949
1.3486451353339457
1.4934046857783836
1.4972285986393703
1.4934129689831006
1.4953980536425111
1.4934115622685598
1.4941494334122483
1.4934098840423831
1.4935901586210747
1.4934094331386412
1.4934390318502955
1.493409373758865
1.4934127955757519
1.4934093687895289
1.4934096608082226
1.4934093684845395
1.493409406282634
1.4934093684845395
1.4934096608082226
1.4934093687895289
1.4934127955757519
1.493409373758865
1.4934390318502955
1.4934094331386412
1.4935901586210747
1.4934098840423831
1.4941494334122483
1.4934115622685598
1.4953980536425111
1.4934129689831006
1.4972285986393703
1.4934046857783836
1.5
1.6432869621080317
1.6474206637745963
1.6432965952079899
1.6454684100490786
1.6432944010418993
1.6440841835889719
1.6432923809359983
1.6434761442981296
1.6432918923532605
1.6433201883041275
1.6432918337498179
1.6432948751068015
1.6432918292490428
1.643292069216586
1.6432918289941947
1.6432918576517368
1.6432918289941947
1.643292069216586
1.6432918292490428
1.6432948751068015
1.6432918337498179
1.6433201883041275
1.6432918923532605
1.6434761442981296
1.6432923809359983
1.6440841835889719
1.6432944010418993
1.6454684100490786
1.6432965952079899
1.6474206637745963
1.6432869621080317
1.6513548646660543
1.7684169463840944
1.7726888924889201
1.7684265338826293
1.7706617428029596
1.7684241486291703
1.7692007385006896
1.7684221913724036
1.7685913440036478
1.7684217643265063
1.768445956166979
1.7684217178588892
1.7684241257269628
1.7684217145880081
1.768421890243518
1.7684217144169108
1.7684217338187884
1.7684217144169108
1.768421890243518
1.7684217145880081
1.7684241257269628
1.7684217178588892
1.768445956166979
1.7684217643265063
1.7685913440036478
1.7684221913724036
1.7692007385006896
1.7684241486291703
1.7706617428029596
1.7684265338826293
1.7726888924889201
1.7684169463840944
1.7772998611746911
1.8582862381583423
1.8624994978611566
1.8582944447372025
1.8604214404323007
1.8582925056062145
1.8589832877487151
1.8582909801961431
1.8584306553810181
1.8582906770359022
1.8583092351063688
1.858290646840058
1.858292366496908
1.8582906448721535
1.858290761855963
1.8582906447761083
1.8582906568495612
1.8582906447761083
1.858290761855963
1.8582906448721535
1.858292366496908
1.858290646840058
1.8583092351063688
1.8582906770359022
1.8584306553810181
1.8582909801961431
1.8589832877487151
1.8582925056062145
1.8604214404323007
1.8582944447372025
1.8624994978611566
1.8582862381583423
1.8670357598021707
1.9163225367908141
1.9201905673442718
1.9163286097236576
1.9181702966218717
1.916327361076736
1.9168821387482686
1.9163263822787433
1.9164307743327913
1.9163262026628274
1.9163391902255995
1.9163261860548781
1.9163273187432162
1.9163261850393722
1.9163262578185805
1.9163261849925768
1.9163261921084187
1.9163261849925768
1.9163262578185805
1.9163261850393722
1.9163273187432162
1.9163261860548781
1.9163391902255995
1.9163262026628274
1.9164307743327913
1.9163263822787433
1.9168821387482686
1.916327361076736
1.9181702966218717
1.9163286097236576
1.9201905673442718
1.9163225367908141
1.9241418199787566
1.9514233677557351
1.9546938237809128
1.9514272835177939
1.9528804784194682
1.9514266219427658
1.9518335761314527
1.9514260890552031
1.9514979428871588
1.9514259974277857
1.9514344600522449
1.9514259894473469
1.9514266927253794
1.9514259889835375
1.9514260322371557
1.9514259889631294
1.9514259930253888
1.9514259889631294
1.9514260322371557
1.9514259889835375
1.9514266927253794
1.9514259894473469
1.9514344600522449
1.9514259974277857
1.9514979428871588
1.9514260890552031
1.9518335761314527
1.9514266219427658
1.9528804784194682
1.9514272835177939
1.9546938237809128
1.9514233677557351
1.9579122720843811
1.9722291158572769
1.9746791343705212
1.9722313311032267
1.9732655970638275
1.9722310416746478
1.9725050119568452
1.9722307900815115
1.9722768676160574
1.9722307488150153
1.9722359563463698
1.9722307453782981
1.9722311630726479
1.9722307451861545
1.9722307700854043
1.9722307451779995
1.9722307474520417
1.9722307451779995
1.9722307700854043
1.9722307451861545
1.9722311630726479
1.9722307453782981
1.9722359563463698
1.9722307488150153
1.9722768676160574
1.9722307900815115
1.9725050119568452
1.9722310416746478
1.9732655970638275
1.9722313311032267
1.9746791343705212
1.9722291158572769
1.9770226300899743
1.9839818520435184
1.985787614974039
1.9839829805955818
1.9846928977649068
1.9839828669695567
1.9841598624632437
1.9839827593976791
1.9840111852853337
1.9839827424740932
1.9839858430417863
1.9839827411165021
1.9839829828805033
1.9839827410429487
1.983982755121823
1.9839827410399138
1.9839827423005147
1.9839827410399138
1.983982755121823
1.9839827410429487
1.9839829828805033
1.9839827411165021
1.9839858430417863
1.9839827424740932
1.9840111852853337
1.9839827593976791
1.9841598624632437
1.9839828669695567
1.9846928977649068
1.9839829805955818
1.985787614974039
1.9839818520435184
1.9875683491468141
1.9919071968951179
1.9926453790347445
1.9919078044017746
1.99222932162192
1.9919077905042952
1.9919934419594667
1.9919077506054246
1.9919220259351533
1.9919077440592918
1.9919093329414774
1.9919077435270218
1.9919078687602592
1.9919077434981993
1.9919077508299954
1.9919077434970294
1.9919077441548527
1.9919077434970294
1.9919077508299954
1.9919077434981993
1.9919078687602592
1.9919077435270218
1.9919093329414774
1.9919077440592918
1.9919220259351533
1.9919077506054246
1.9919934419594667
1.9919077905042952
1.99222932162192
1.9919078044017746
1.9926453790347445
1.9919071968951179
1.993307149075715
1.9948441040104987
1.9956144634743136
1.9948443219132821
1.9951228284560025
1.9948443103691536
1.994908788416373
1.9948442954463679
1.9948540739147844
1.9948442932270329
1.9948453141383045
1.9948442930587746
1.9948443699987526
1.994844293050102
1.9948442974102842
1.9948442930497585
1.9948442934315889
1.9948442930497585
1.9948442974102842
1.994844293050102
1.9948443699987526
1.9948442930587746
1.9948453141383045
1.9948442932270329
1.9948540739147844
1.9948442954463679
1.994908788416373
1.9948443103691536
1.9951228284560025
1.9948443219132821
1.9956144634743136
1.9948441040104987
1.9964063974185799
2.0003092903825044
1.9990591820782577
2.0003103822641317
1.9998805734917247
2.0003103973301388
2.0002230926298004
2.000310335432796
2.0002992224711451
2.0003103249609095
2.0003093759697417
2.0003103240775735
2.0003102667091524
2.0003103240277444
2.0003103214728459
2.0003103240256555
2.000310323854011
2.0003103240256555
2.0003103214728459
2.0003103240277444
2.0003102667091524
2.0003103240775735
2.0003093759697417
2.0003103249609095
2.0002992224711451
2.000310335432796
2.0002230926298004
2.0003103973301388
1.9998805734917247
2.0003103822641317
1.9990591820782577
2.0003092903825044
1.9980732653366724
1.9984114126076744
1.9986905253500125
1.9984114363459029
1.9985122582085142
1.9984114363948657
1.9984349104322969
1.9984114369594279
1.998415016651532
1.99841143721265
1.9984118120618963
1.9984114372472588
1.9984114655051328
1.9984114372498794
1.9984114388480865
1.9984114372500121
1.9984114373894515
1.9984114372500121
1.9984114388480865
1.9984114372498794
1.9984114655051328
1.9984114372472588
1.9984118120618963
1.99841143721265
1.998415016651532
1.9984114369594279
1.9984349104322969
1.9984114363948657
1.9985122582085142
1.9984114363459029
1.9986905253500125
1.9984114126076744
1.9989677689632452
2.0047405883478588
2.0014286918245077
2.0047455899926545
2.0032773377424227
2.0047449566991182
2.0043561100529526
2.0047443507532838
2.0046809595928634
2.0047442496995704
2.0047374119151571
2.0047442411113021
2.0047437215450365
2.0047442406195684
2.0047442113913267
2.0047442405983245
2.0047442380836178
2.0047442405983245
2.0047442113913267
2.0047442406195684
2.0047437215450365
2.0047442411113021
2.0047374119151571
2.0047442496995704
2.0046809595928634
2.0047443507532838
2.0043561100529526
2.0047449566991182
2.0032773377424227
2.0047455899926545
2.0014286918245077
2.0047405883478588
1.9994472213630763
1.9995611943630558
1.9996437700591627
1.9995611607923682
1.9995953599434693
1.9995611682489813
1.9995708654679727
1.9995611768302839
1.999562973099692
1.9995611788407739
1.9995614014586833
1.9995611790719738
1.9995611984026835
1.9995611790886469
1.9995611803199123
1.9995611790895007
1.9995611792081798
1.9995611790895007
1.9995611803199123
1.9995611790886469
1.9995611984026835
1.9995611790719738
1.9995614014586833
1.9995611788407739
1.999562973099692
1.9995611768302839
1.9995708654679727
1.9995611682489813
1.9995953599434693
1.9995611607923682
1.9996437700591627
1.9995611943630558
1.999704042886487
2.0069563856195289
2.0027294764461496
2.0069686328963057
2.0048282259479997
2.0069644868196752
2.0062820770811358
2.0069621540076681
2.0068297301470444
2.0069617367726504
2.0069450794284021
2.0069616978459339
2.0069602480064024
2.0069616954480938
2.0069616033143798
2.0069616953379814
2.0069616864922768
2.0069616953379814
2.0069616033143798
2.0069616954480938
2.0069602480064024
2.0069616978459339
2.0069450794284021
2.0069617367726504
2.0068297301470444
2.0069621540076681
2.0062820770811358
2.0069644868196752
2.0048282259479997
2.0069686328963057
2.0027294764461496
2.0069563856195289
1.9998415637808975
1.9999151889582765
1.9999151889582765
1.9999151889582765
1.9999151889582765
1.9999151889582765
1.9999151889582765
1.9999151889582765
1.9999151889582765
1.9999151889582765
1.9999151889582765
1.9999151889582765
1.9999151889582765
1.9999151889582765
1.9999151889582765
1.9999151889582765
1.9999151889582765
1.9999151889582765
1.9999151889582765
1.9999151889582765
1.9999151889582765
1.9999151889582765
1.9999151889582765
1.9999151889582765
1.9999151889582765
1.9999151889582765
1.9999151889582765
1.9999151889582765
1.9999151889582765
1.9999151889582765
1.9999151889582765
1.9999151889582765
1.9999151889582765
1.0038828780296396
1.0019169008696589
1.0038962482909028
1.0025679947858654
1.0038962692545486
1.0030516045150462
1.0038938468408003
1.0035275518758262
1.0038920952696633
1.0037899077214563
1.0038915807582032
1.0038723565834846
1.0038914972762496
1.0038889002088363
1.0038914883481187
1.0038909736354877
1.0038914883481187
1.0038889002088363
1.0038914972762496
1.0038723565834846
1.0038915807582032
1.0037899077214563
1.0038920952696633
1.0035275518758262
1.0038938468408003
1.0030516045150462
1.0038962692545486
1.0025679947858654
1.0038962482909028
1.0019169008696589
1.0038828780296396
1.0000453978687025
1.0000695500964654
1.0000820454139381
1.0000695147506597
1.0000758742109248
1.0000695080087547
1.0000719012431802
1.000069512168211
1.0000702454142534
1.0000695153346906
1.0000696965868767
1.0000695163174123
1.0000695506833905
1.0000695164915039
1.0000695214370496
1.0000695165116817
1.000069517571655
1.0000695165116817
1.0000695214370496
1.0000695164915039
1.0000695506833905
1.0000695163174123
1.0000696965868767
1.0000695153346906
1.0000702454142534
1.000069512168211
1.0000719012431802
1.0000695080087547
1.0000758742109248
1.0000695147506597
1.0000820454139381
1.0000695500964654
1.0000848110417238
1.0024082246978625
1.0007909289613717
1.0024147274889084
1.0011789938455995
1.0024164763246097
1.0016681206732856
1.0024153427420754
1.0021284005530295
1.0024144252224421
1.0023440590637502
1.0024141845544514
1.0024024380776673
1.0024141498859089
1.0024127285892734
1.0024141465340559
1.0024138911239699
1.0024141465340559
1.0024127285892734
1.0024141498859089
1.0024024380776673
1.0024141845544514
1.0023440590637502
1.0024144252224421
1.0021284005530295
1.0024153427420754
1.0016681206732856
1.0024164763246097
1.0011789938455995
1.0024147274889084
1.0007909289613717
1.0024082246978625
1.0001584362191025
1.000253502913522
1.0002806546285192
1.0002535178370158
1.0002659940434759
1.0002535138049182
1.0002577899532192
1.0002535110790076
1.0002546619870378
1.0002535108196846
1.0002537538584511
1.0002535109029629
1.0002535502980379
1.0002535109283215
1.00025351583879
1.0002535109317467
1.0002535118634654
1.0002535109317467
1.00025351583879
1.0002535109283215
1.0002535502980379
1.0002535109029629
1.0002537538584511
1.0002535108196846
1.0002546619870378
1.0002535110790076
1.0002577899532192
1.0002535138049182
1.0002659940434759
1.0002535178370158
1.0002806546285192
1.000253502913522
1.0002959571135133
1.0024811797042852
1.0010043868173908
1.0024837658325132
1.0014719101773113
1.0024847690920868
1.0020015517059939
1.0024844389532548
1.002336833126152
1.0024841865405698
1.0024542793599343
1.0024841294137519
1.0024798783740061
1.0024841220865757
1.0024836749452029
1.0024841214386842
1.0024840502405707
1.0024841214386842
1.0024836749452029
1.0024841220865757
1.0024798783740061
1.0024841294137519
1.0024542793599343
1.0024841865405698
1.002336833126152
1.0024844389532548
1.0020015517059939
1.0024847690920868
1.0014719101773113
1.0024837658325132
1.0010043868173908
1.0024811797042852
1.0005527786369237
1.0009131916509681
1.0009914975753
1.0009132112600465
1.0009531446027666
1.000913214203085
1.000928586619904
1.0009132125021722
1.0009174771372296
1.0009132118732438
1.0009140630140174
1.0009132117804094
1.000913336730304
1.0009132117725104
1.0009132257361508
1.0009132117720878
1.0009132141709423
1.0009132117720878
1.0009132257361508
1.0009132117725104
1.000913336730304
1.0009132117804094
1.0009140630140174
1.0009132118732438
1.0009174771372296
1.0009132125021722
1.000928586619904
1.000913214203085
1.0009531446027666
1.0009132112600465
1.0009914975753
1.0009131916509681
1.001032231036755
1.0032029976084194
1.0023360101611103
1.003203816538724
1.0027336151082367
1.0032041327219328
1.0030324358604936
1.0032040889360589
1.0031629593497615
1.0032040511143399
1.0031973341948559
1.0032040432226648
1.0032032602087118
1.003204042276469
1.0032039743446026
1.0032040421976947
1.0032040332633965
1.0032040421976947
1.0032039743446026
1.003204042276469
1.0032032602087118
1.0032040432226648
1.0031973341948559
1.0032040511143399
1.0031629593497615
1.0032040889360589
1.0030324358604936
1.0032041327219328
1.0027336151082367
1.003203816538724
1.0023360101611103
1.0032029976084194
1.0019267346633276
1.003318810571419
1.0035125021509603
1.0033188562051563
1.0034247067805806
1.0033188684267105
1.0033619208704738
1.0033188649374645
1.0033311666694693
1.0033188628812106
1.0033213497752334
1.0033188624796943
1.0033192292700586
1.0033188624335161
1.0033189034741772
1.0033188624297718
1.0033188694807071
1.0033188624297718
1.0033189034741772
1.0033188624335161
1.0033192292700586
1.0033188624796943
1.0033213497752334
1.0033188628812106
1.0033311666694693
1.0033188649374645
1.0033619208704738
1.0033188684267105
1.0034247067805806
1.0033188562051563
1.0035125021509603
1.003318810571419
1.0035936025814203
1.0069597005961179
1.0068516163878607
1.0069599400251024
1.0069456908131036
1.0069600207175957
1.0069744654552482
1.0069600130781633
1.0069687808889589
1.0069600056091847
1.0069624507481374
1.006960004043056
1.006960434013652
1.006960003856697
1.0069600574468709
1.0069600038413968
1.0069600137059513
1.0069600038413968
1.0069600574468709
1.006960003856697
1.006960434013652
1.006960004043056
1.0069624507481374
1.0069600056091847
1.0069687808889589
1.0069600130781633
1.0069744654552482
1.0069600207175957
1.0069456908131036
1.0069599400251024
1.0068516163878607
1.0069597005961179
1.006692850924285
1.0119582688720641
1.0123244500997017
1.0119584292461952
1.0121714578185801
1.0119584666699522
1.0120513097242001
1.0119584478859793
1.0119864856506202
1.0119584375981452
1.011964338881099
1.0119584355344979
1.011959331454501
1.0119584352901747
1.0119585376589821
1.0119584352698368
1.0119584531210049
1.0119584352698368
1.0119585376589821
1.0119584352901747
1.011959331454501
1.0119584355344979
1.011964338881099
1.0119584375981452
1.0119864856506202
1.0119584478859793
1.0120513097242001
1.0119584666699522
1.0121714578185801
1.0119584292461952
1.0123244500997017
1.0119582688720641
1.0124316508531859
1.0225848622385108
1.0229582754822737
1.0225851653949873
1.0228292758576096
1.0225852279009764
1.0227024907097924
1.0225851890406008
1.0226228400674056
1.0225851681970901
1.0225933892990142
1.0225851639655656
1.0225864400840137
1.0225851634588452
1.0225853112588223
1.0225851634163019
1.0225851893955458
1.0225851634163019
1.0225853112588223
1.0225851634588452
1.0225864400840137
1.0225851639655656
1.0225933892990142
1.0225851681970901
1.0226228400674056
1.0225851890406008
1.0227024907097924
1.0225852279009764
1.0228292758576096
1.0225851653949873
1.0229582754822737
1.0225848622385108
1.0229773699100257
1.0414368969578145
1.0420084691856428
1.041437395157998
1.0417858501675097
1.0414374631008734
1.0416002361627157
1.0414373836626321
1.0414892871716424
1.0414373445039316
1.0414486657063977
1.0414373366183418
1.0414390928380464
1.0414373356728981
1.0414375387051669
1.0414373355932591
1.0414373711675549
1.0414373355932591
1.0414375387051669
1.0414373356728981
1.0414390928380464
1.0414373366183418
1.0414486657063977
1.0414373445039316
1.0414892871716424
1.0414373836626321
1.0416002361627157
1.0414374631008734
1.0417858501675097
1.041437395157998
1.0420084691856428
1.0414368969578145
1.0420877279156189
1.0751339429211013
1.0758045010659849
1.0751347720697295
1.0755498532466714
1.0751348267611953
1.0753349518978768
1.0751346811675628
1.0751998382779622
1.0751346138320195
1.0751489544293236
1.0751346003985991
1.0751368264776149
1.0751345987921599
1.0751348548337492
1.0751345986571073
1.0751346431292537
1.0751345986571073
1.0751348548337492
1.0751345987921599
1.0751368264776149
1.0751346003985991
1.0751489544293236
1.0751346138320195
1.0751998382779622
1.0751346811675628
1.0753349518978768
1.0751348267611953
1.0755498532466714
1.0751347720697295
1.0758045010659849
1.0751339429211013
1.0758581800212434
1.1320071978288473
1.132811767311269
1.1320085029070868
1.1324980469492494
1.1320084836159057
1.132247333119432
1.1320082367301478
1.132086440903223
1.1320081306812002
1.132025256497335
1.1320081099865515
1.1320107339077152
1.1320081075466812
1.132008403676346
1.1320081073441737
1.1320081576382368
1.1320081073441737
1.132008403676346
1.1320081075466812
1.1320107339077152
1.1320081099865515
1.132025256497335
1.1320081306812002
1.132086440903223
1.1320082367301478
1.132247333119432
1.1320084836159057
1.1324980469492494
1.1320085029070868
1.132811767311269
1.1320071978288473
1.1329642401978293
1.221296883205703
1.2222053899154628
1.2212987300135507
1.2218508169399558
1.2212985526705089
1.2215714633232722
1.2212981741521789
1.2213871673387531
1.2212980235917295
1.2213171472048203
1.2212979952482437
1.2213008418260554
1.2212979920001772
1.2212983017701986
1.2212979917377089
1.2212980422457562
1.2212979917377089
1.2212983017701986
1.2212979920001772
1.2213008418260554
1.2212979952482437
1.2213171472048203
1.2212980235917295
1.2213871673387531
1.2212981741521789
1.2215714633232722
1.2212985526705089
1.2218508169399558
1.2212987300135507
1.2222053899154628
1.221296883205703
1.2227001388253087
1.3463636131302803
1.3473365470406145
1.3463658756068861
1.3469657549701215
1.3463654812810855
1.3466644704868154
1.3463649693650983
1.3464607526966319
1.3463647800857197
1.3463846148174599
1.3463647461797923
1.3463675547861829
1.3463647424721257
1.3463650304433026
1.3463647421866163
1.3463647862041261
1.3463647421866163
1.3463650304433026
1.3463647424721257
1.3463675547861829
1.3463647461797923
1.3463846148174599
1.3463647800857197
1.3464607526966319
1.3463649693650983
1.3466644704868154
1.3463654812810855
1.3469657549701215
1.3463658756068861
1.3473365470406145
1.3463636131302803
1.3486451353339457
1.4965424337124216
1.4975147228950272
1.4965448238618755
1.4971720899872603
1.4965442844900954
1.4968578869749232
1.4965436934815433
1.4966401329325092
1.4965434902583825
1.4965622139306618
1.4965434565054105
1.496545912071976
1.496543453086445
1.4965436845797639
1.4965434528426926
1.496543485310142
1.4965434528426926
1.4965436845797639
1.496543453086445
1.496545912071976
1.4965434565054105
1.4965622139306618
1.4965434902583825
1.4966401329325092
1.4965436934815433
1.4968578869749232
1.4965442844900954
1.4971720899872603
1.4965448238618755
1.4975147228950272
1.4965424337124216
1.5
1.6470685632366358
1.6480165930632713
1.6470707071800681
1.6477194377037649
1.6470702436582925
1.6473819049733323
1.6470696977894159
1.6471578877900475
1.647069525252113
1.6470850952827618