# vtk DataFile Version 3.0
Euler density step 298
ASCII
DATASET STRUCTURED_POINTS
DIMENSIONS 32 32 32
ORIGIN 0 0 0
SPACING 0.3125 0.3125 0.3125
POINT_DATA 32768
SCALARS density double 1
LOOKUP_TABLE default
1.0058307007927194
1.0020026176701182
1.0058408966507466
1.0039925625017967
1.0058401404702983
1.005232164283566
1.0058384388939345
1.0057096483825385
1.0058380171225818
1.0058198191924561
1.0058379685521655
1.0058361656320698
1.0058379651256484
1.0058378340412784
1.0058379649595481
1.0058379505902564
1.0058379649595481
1.0058378340412784
1.0058379651256484
1.0058361656320698
1.0058379685521655
1.0058198191924561
1.0058380171225818
1.0057096483825385
1.0058384388939345
1.005232164283566
1.0058401404702983
1.0039925625017967
1.0058408966507466
1.0020026176701182
1.0058307007927194
1.0000453978687025
1.0000799744467248
1.0000853583510607
1.0000799582605258
1.0000826328056707
1.0000799565778722
1.0000808941942809
1.0000799584109772
1.000080176857437
1.0000799590070373
1.0000799930685043
1.0000799590868297
1.0000799627896675
1.0000799590928842
1.0000799593864533
1.0000799590931708
1.0000799591280569
1.0000799590931708
1.0000799593864533
1.0000799590928842
1.0000799627896675
1.0000799590868297
1.0000799930685043
1.0000799590070373
1.000080176857437
1.0000799584109772
1.0000808941942809
1.0000799565778722
1.0000826328056707
1.0000799582605258
1.0000853583510607
1.0000799744467248
1.0000848110417238
1.0050665963259313
1.002139698965703
1.0050712522653824
1.0037723530123761
1.0050713823561441
1.0047011193192141
1.0050708594205005
1.0050032686277188
1.0050707411749891
1.0050624340045364
1.0050707292460359
1.0050700057201771
1.0050707285107394
1.0050706818718598
1.0050707284803559
1.0050707239118108
1.0050707284803559
1.0050706818718598
1.0050707285107394
1.0050700057201771
1.0050707292460359
1.0050624340045364
1.0050707411749891
1.0050032686277188
1.0050708594205005
1.0047011193192141
1.0050713823561441
1.0037723530123761
1.0050712522653824
1.002139698965703
1.0050665963259313
1.0001584362191025
1.000279508651748
1.0002891673972947
1.000279510502071
1.0002835515939394
1.000279509473732
1.000280689910636
1.0002795094605108
1.000279741025063
1.0002795095126893
1.0002795406737079
1.0002795095205144
1.0002795125163111
1.000279509521012
1.0002795097355244
1.0002795095210237
1.0002795095445089
1.0002795095210237
1.0002795097355244
1.000279509521012
1.0002795125163111
1.0002795095205144
1.0002795406737079
1.0002795095126893
1.000279741025063
1.0002795094605108
1.000280689910636
1.000279509473732
1.0002835515939394
1.000279510502071
1.0002891673972947
1.000279508651748
1.0002959571135133
1.0032080310615541
1.0017640163627266
1.0032092444116696
1.0026757986987913
1.0032093650427538
1.0030848453115349
1.0032093002593139
1.0031903759871093
1.00320928623516
1.0032073120774916
1.0032092849629692
1.0032091367735807
1.003209284894887
1.0032092765764755
1.003209284892693
1.0032092841777034
1.003209284892693
1.0032092765764755
1.003209284894887
1.0032091367735807
1.0032092849629692
1.0032073120774916
1.00320928623516
1.0031903759871093
1.0032093002593139
1.0030848453115349
1.0032093650427538
1.0026757986987913
1.0032092444116696
1.0017640163627266
1.0032080310615541
1.0005527786369237
1.0009548921802356
1.0009973049927452
1.0009548949717535
1.0009706238370029
1.0009548950193525
1.0009588333561636
1.0009548949137934
1.0009555675384711
1.0009548948971598
1.000954976140447
1.0009548948957276
1.0009549021110089
1.0009548948956259
1.0009548953842864
1.0009548948956197
1.0009548949472102
1.0009548948956197
1.0009548953842864
1.0009548948956259
1.0009549021110089
1.0009548948957276
1.000954976140447
1.0009548948971598
1.0009555675384711
1.0009548949137934
1.0009588333561636
1.0009548950193525
1.0009706238370029
1.0009548949717535
1.0009973049927452
1.0009548921802356
1.001032231036755
1.002691591070376
1.0023357290013295
1.0026917783572349
1.0025874915812012
1.0026918043276465
1.0026731281683836
1.002691800787807
1.0026896883192389
1.0026917998957388
1.0026916462878002
1.0026917998204885
1.0026917930368753
1.0026917998172125
1.0026917997101641
1.0026917998171625
1.0026917998338445
1.0026917998171625
1.0026917997101641
1.0026917998172125
1.0026917930368753
1.0026917998204885
1.0026916462878002
1.0026917998957388
1.0026896883192389
1.002691800787807
1.0026731281683836
1.0026918043276465
1.0025874915812012
1.0026917783572349
1.0023357290013295
1.002691591070376
1.0019267346633276
1.0033609721845635
1.0034909841617523
1.0033609834871069
1.0034095026660645
1.0033609844946074
1.0033731485335542
1.0033609839391207
1.0033630618085423
1.0033609838179229
1.0033612349382495
1.0033609838063922
1.0033610061316731
1.0033609838056923
1.00336098531956
1.0033609838056603
1.0033609839656721
1.0033609838056603
1.00336098531956
1.0033609838056923
1.0033610061316731
1.0033609838063922
1.0033612349382495
1.0033609838179229
1.0033630618085423
1.0033609839391207
1.0033731485335542
1.0033609844946074
1.0034095026660645
1.0033609834871069
1.0034909841617523
1.0033609721845635
1.0035936025814203
1.0065098138897441
1.0066420309587041
1.0065098572925646
1.0065694330063266
1.0065098621456035
1.0065268484407128
1.0065098606276217
1.0065130024421778
1.0065098602704672
1.006510259059411
1.0065098602364992
1.0065098967994337
1.0065098602345002
1.0065098627633076
1.0065098602344162
1.0065098605051219
1.0065098602344162
1.0065098627633076
1.0065098602345002
1.0065098967994337
1.0065098602364992
1.006510259059411
1.0065098602704672
1.0065130024421778
1.0065098606276217
1.0065268484407128
1.0065098621456035
1.0065694330063266
1.0065098572925646
1.0066420309587041
1.0065098138897441
1.006692850924285
1.0118652568790973
1.012196236067445
1.0118653205950252
1.0119928537055212
1.0118653240338509
1.0118982200336051
1.0118653196943317
1.011871059931192
1.0118653187890616
1.0118660229822884
1.0118653187026145
1.0118653819472474
1.0118653186972804
1.0118653230145516
1.011865318697037
1.0118653191552143
1.011865318697037
1.0118653230145516
1.0118653186972804
1.0118653819472474
1.0118653187026145
1.0118660229822884
1.0118653187890616
1.011871059931192
1.0118653196943317
1.0118982200336051
1.0118653240338509
1.0119928537055212
1.0118653205950252
1.012196236067445
1.0118652568790973
1.0124316508531859
1.0221729051466497
1.022661995357961
1.0221730450273783
1.0223660892394271
1.0221730488964884
1.0222237945239827
1.0221730378471374
1.0221820024957289
1.0221730356003
1.0221741434099294
1.0221730353859457
1.0221731352642409
1.0221730353726388
1.022173042200837
1.0221730353720273
1.0221730360965771
1.0221730353720273
1.022173042200837
1.0221730353726388
1.0221731352642409
1.0221730353859457
1.0221741434099294
1.0221730356003
1.0221820024957289
1.0221730378471374
1.0222237945239827
1.0221730488964884
1.0223660892394271
1.0221730450273783
1.022661995357961
1.0221729051466497
1.0229773699100257
1.0409151650984567
1.0416400868937854
1.0409154534930185
1.041202547639039
1.0409154508574063
1.0409913012880971
1.0409154244512
1.0409288630925853
1.0409154192700796
1.0409170803333274
1.0409154187793959
1.0409155682318396
1.0409154187488838
1.0409154289270317
1.0409154187474683
1.0409154198219477
1.0409154187474683
1.0409154289270317
1.0409154187488838
1.0409155682318396
1.0409154187793959
1.0409170803333274
1.0409154192700796
1.0409288630925853
1.0409154244512
1.0409913012880971
1.0409154508574063
1.041202547639039
1.0409154534930185
1.0416400868937854
1.0409151650984567
1.0420877279156189
1.0742520763435741
1.0752705252440207
1.0742526415187044
1.074658561960681
1.0742526114990856
1.074360333943821
1.0742525532125988
1.0742716230616953
1.0742525422475051
1.0742548867361259
1.074252541223683
1.0742527503374604
1.0742525411603094
1.0742525552431916
1.0742525411573658
1.0742525426251099
1.0742525411573658
1.0742525552431916
1.0742525411603094
1.0742527503374604
1.074252541223683
1.0742548867361259
1.0742525422475051
1.0742716230616953
1.0742525532125988
1.074360333943821
1.0742526114990856
1.074658561960681
1.0742526415187044
1.0752705252440207
1.0742520763435741
1.0758581800212434
1.1307913542643744
1.1321815157975461
1.1307923992912501
1.1313460620919342
1.130792288257084
1.1309386826593959
1.1307921694304177
1.1308178166055147
1.1307921482469845
1.1307952511309443
1.1307921463184363
1.1307924175479878
1.1307921462008166
1.1307921640460967
1.1307921461954038
1.1307921480086711
1.1307921461954038
1.1307921640460967
1.1307921462008166
1.1307924175479878
1.1307921463184363
1.1307952511309443
1.1307921482469845
1.1308178166055147
1.1307921694304177
1.1309386826593959
1.130792288257084
1.1313460620919342
1.1307923992912501
1.1321815157975461
1.1307913542643744
1.1329642401978293
1.2197661660130401
1.2215997850441156
1.2197679545741924
1.2204949472560049
1.21976765350525
1.2199576443977074
1.2197674325713932
1.2198000036902275
1.2197673957423343
1.2197712219183017
1.2197673925190076
1.2197677153958331
1.2197673923278936
1.2197674127410754
1.2197673923192918
1.2197673943059735
1.2197673923192918
1.2197674127410754
1.2197673923278936
1.2197677153958331
1.2197673925190076
1.2197712219183017
1.2197673957423343
1.2198000036902275
1.2197674325713932
1.2199576443977074
1.21976765350525
1.2204949472560049
1.2197679545741924
1.2215997850441156
1.2197661660130401
1.2227001388253087
1.3446715036409678
1.3469808252766244
1.34467425206849
1.345586238203498
1.3446735919869182
1.3449076188407918
1.3446732243723083
1.3447120270824031
1.3446731677323198
1.3446775259208315
1.3446731630408548
1.3446735116834914
1.344673162775216
1.3446731835300529
1.34467316276377
1.3446731646569934
1.34467316276377
1.3446731835300529
1.344673162775216
1.3446735116834914
1.3446731630408548
1.3446775259208315
1.3446731677323198
1.3447120270824031
1.3446732243723083
1.3449076188407918
1.3446735919869182
1.345586238203498
1.34467425206849
1.3469808252766244
1.3446715036409678
1.3486451353339457
1.4947338701378434
1.4974733306876833
1.4947375916890193
1.4958179997779375
1.4947364179816014
1.4950063163592058
1.4947358897591343
1.4947785368361601
1.4947358157159751
1.4947403160661417
1.4947358100465764
1.4947361451063712
1.4947358097481109
1.4947358281876348
1.4947358097361516
1.4947358112850115
1.4947358097361516
1.4947358281876348
1.4947358097481109
1.4947361451063712
1.4947358100465764
1.4947403160661417
1.4947358157159751
1.4947785368361601
1.4947358897591343
1.4950063163592058
1.4947364179816014
1.4958179997779375
1.4947375916890193
1.4974733306876833
1.4947338701378434
1.5
1.6448679029293511
1.6479103414498908
1.6448722004652476
1.6460599894635171
1.6448706088512894
1.6451544540645846
1.6448699995464615
1.6449120399330193
1.6448699228658825
1.644874036319468
1.6448699175335899
1.6448701997913258
1.6448699172767702
1.6448699315398267
1.6448699172673262
1.6448699183655668
1.6448699172673262
1.6448699315398267
1.6448699172767702
1.6448701997913258
1.6448699175335899
1.644874036319468
1.6448699228658825
1.6449120399330193
1.6448699995464615
1.6451544540645846
1.6448706088512894
1.6460599894635171
1.6448722004652476
1.6479103414498908
1.6448679029293511
1.6513548646660543
1.7701911903316747
1.7733291027421456
1.7701952923384185
1.7713790384498647
1.7701937135770058
1.7704593077872954
1.7701931741705248
1.7702297177606452
1.7701931129452284
1.7701964224812956
1.7701931090650114
1.7701933189917218
1.7701931088930933
1.7701931186931683
1.7701931088872507
1.7701931095844836
1.7701931088872507
1.7701931186931683
1.7701931088930933
1.7701933189917218
1.7701931090650114
1.7701964224812956
1.7701931129452284
1.7702297177606452
1.7701931741705248
1.7704593077872954
1.7701937135770058
1.7713790384498647
1.7701952923384185
1.7733291027421456
1.7701911903316747
1.7772998611746911
1.8601772910982721
1.863136140602861
1.8601805523447137
1.8612344490620241
1.8601793760050418
1.8603995223307992
1.8601790026628597
1.8602071969514145
1.8601789638080797
1.8601813459669692
1.8601789615294049
1.860179102808363
1.8601789614351929
1.8601789676111975
1.860178961432192
1.8601789618441895
1.860178961432192
1.8601789676111975
1.8601789614351929
1.860179102808363
1.8601789615294049
1.8601813459669692
1.8601789638080797
1.8602071969514145
1.8601790026628597
1.8603995223307992
1.8601793760050418
1.8612344490620241
1.8601805523447137
1.863136140602861
1.8601772910982721
1.8670357598021707
1.9182530074844883
1.920772213304536
1.9182552055050439
1.9190947677459156
1.9182545114817675
1.9184182713175579
1.9182543007147173
1.9182740031982668
1.9182542802301084
1.9182558528240592
1.9182542790997845
1.9182543675691002
1.9182542790555244
1.9182542827343372
1.9182542790541861
1.9182542792881208
1.9182542790541861
1.9182542827343372
1.9182542790555244
1.9182543675691002
1.9182542790997845
1.9182558528240592
1.9182542802301084
1.9182740031982668
1.9182543007147173
1.9184182713175579
1.9182545114817675
1.9190947677459156
1.9182552055050439
1.920772213304536
1.9182530074844883
1.9241418199787566
1.9533305337881408
1.9552723620896566
1.9533318091961975
1.9539387461564128
1.9533314691269918
1.9534430257051023
1.9533313680040598
1.9533441262043052
1.9533313586711085
1.9533323332892893
1.9533313581793135
1.9533314109099518
1.9533313581608411
1.953331360276698
1.9533313581603049
1.9533313582904583
1.9533313581603049
1.953331360276698
1.9533313581608411
1.9533314109099518
1.9533313581793135
1.9533323332892893
1.9533313586711085
1.9533441262043052
1.9533313680040598
1.9534430257051023
1.9533314691269918
1.9539387461564128
1.9533318091961975
1.9552723620896566
1.9533305337881408
1.9579122720843811
1.9737881222846703
1.9751466036476786
1.9737887698861687
1.9741921635559194
1.9737886265175939
1.9738594329588535
1.9737885838879916
1.97379637917045
1.9737885800956669
1.9737891569566863
1.9737885799024297
1.9737886102728697
1.973788579895392
1.9737885810850155
1.9737885798951946
1.9737885799668005
1.9737885798951946
1.9737885810850155
1.973788579895392
1.9737886102728697
1.9737885799024297
1.9737891569566863
1.9737885800956669
1.97379637917045
1.9737885838879916
1.9738594329588535
1.9737886265175939
1.9741921635559194
1.9737887698861687
1.9751466036476786
1.9737881222846703
1.9770226300899743
1.9853835704480274
1.9862840954594496
1.9853838644880641
1.9856383320412971
1.9853838101601375
1.9854267340371918
1.9853837938452612
1.9853883782869026
1.9853837924335174
1.9853841237358905
1.9853837923633713
1.9853838094730334
1.9853837923608777
1.985383793020294
1.9853837923608073
1.9853837923999467
1.9853837923608073
1.985383793020294
1.9853837923608777
1.9853838094730334
1.9853837923633713
1.9853841237358905
1.9853837924335174
1.9853883782869026
1.9853837938452612
1.9854267340371918
1.9853838101601375
1.9856383320412971
1.9853838644880641
1.9862840954594496
1.9853835704480274
1.9875683491468141
1.9922698945805122
1.9927129821401961
1.9922700298241665
1.9924009282402735
1.9922700135683107
1.992292624416268
1.9922700078715812
1.9922724492958506
1.992270007369116
1.9922701845400426
1.9922700073440724
1.992270016499647
1.9922700073431858
1.992270007695603
1.9922700073431623
1.9922700073640331
1.9922700073431623
1.992270007695603
1.9922700073431858
1.992270016499647
1.9922700073440724
1.9922701845400426
1.992270007369116
1.9922724492958506
1.9922700078715812
1.992292624416268
1.9922700135683107
1.9924009282402735
1.9922700298241665
1.9927129821401961
1.9922698945805122
1.993307149075715
1.9955720288315926
1.9959077823535725
1.9955720744872942
1.9956611953820262
1.9955720683704892
1.9955863729044623
1.9955720664578664
1.9955735388535258
1.9955720662984209
1.9955721697835656
1.9955720662907857
1.9955720715207783
1.995572066290523
1.9955720664886158
1.9955720662905152
1.9955720663021048
1.9955720662905152
1.9955720664886158
1.995572066290523
1.9955720715207783
1.9955720662907857
1.9955721697835656
1.9955720662984209
1.9955735388535258
1.9955720664578664
1.9955863729044623
1.9955720683704892
1.9956611953820262
1.9955720744872942
1.9959077823535725
1.9955720288315926
1.9964063974185799
1.9992537128958965
1.9987637237181592
1.9992539741977853
1.9991479739420639
1.9992539655671235
1.9992410530013047
1.999253958684146
1.9992529930838512
1.999253958006588
1.999253910890594
1.9992539579699498
1.9992539564292064
1.9992539579685931
1.9992539579358182
1.9992539579685553
1.9992539579678468
1.9992539579685553
1.9992539579358182
1.9992539579685931
1.9992539564292064
1.9992539579699498
1.999253910890594
1.999253958006588
1.9992529930838512
1.999253958684146
1.9992410530013047
1.9992539655671235
1.9991479739420639
1.9992539741977853
1.9987637237181592
1.9992537128958965
1.9980732653366724
1.9986881835805637
1.9988045669900478
1.998688186738885
1.9987192515917345
1.9986881867366162
1.9986931807730028
1.9986881868508086
1.9986886997121318
1.9986881868721713
1.9986882227430145
1.9986881868738211
1.998688188675255
1.998688186873897
1.9986881869416491
1.9986881868738993
1.9986881868778339
1.9986881868738993
1.9986881869416491
1.998688186873897
1.998688188675255
1.9986881868738211
1.9986882227430145
1.9986881868721713
1.9986886997121318
1.9986881868508086
1.9986931807730028
1.9986881867366162
1.9987192515917345
1.998688186738885
1.9988045669900478
1.9986881835805637
1.9989677689632452
2.0036555891936949
2.0015538600781873
2.003657394680447
2.0030421551712263
2.0036570703446483
2.0035548496628008
2.0036569612058153
2.0036464901559534
2.0036569511584221
2.0036562345326292
2.0036569506274553
2.0036569157860447
2.0036569506075481
2.0036569493468379
2.0036569506069801
2.0036569505367985
2.0036569506069801
2.0036569493468379
2.0036569506075481
2.0036569157860447
2.0036569506274553
2.0036562345326292
2.0036569511584221
2.0036464901559534
2.0036569612058153
2.0035548496628008
2.0036570703446483
2.0030421551712263
2.003657394680447
2.0015538600781873
2.0036555891936949
1.9994472213630763
1.9996362668001588
1.9996739491048845
1.9996362552247633
1.9996490640518496
1.9996362599097484
1.9996388118386696
1.9996362618731274
1.9996365730212444
1.9996362621197168
1.9996362870433626
1.9996362621364157
1.9996362635315568
1.9996362621371628
1.9996362621944832
1.9996362621371879
1.9996362621407682
1.9996362621371879
1.9996362621944832
1.9996362621371628
1.9996362635315568
1.9996362621364157
1.9996362870433626
1.9996362621197168
1.9996365730212444
1.9996362618731274
1.9996388118386696
1.9996362599097484
1.9996490640518496
1.9996362552247633
1.9996739491048845
1.9996362668001588
1.999704042886487
2.0062784375784348
2.0028808560548055
2.0062840046505213
2.0050562810084225
2.0062814687628312
2.0060291622755799
2.0062807812040471
2.0062496638720746
2.006280714278049
2.0062782125326857
2.0062807105439835
2.0062805703717692
2.0062807103973745
2.0062807046373652
2.0062807103929745
2.0062807100331983
2.0062807103929745
2.0062807046373652
2.0062807103973745
2.0062805703717692
2.0062807105439835
2.0062782125326857
2.006280714278049
2.0062496638720746
2.0062807812040471
2.0060291622755799
2.0062814687628312
2.0050562810084225
2.0062840046505213
2.0028808560548055
2.0062784375784348
1.9998415637808975
1.9999151889582765
1.9999151889582765
1.9999151889582765
1.9999151889582765
1.9999151889582765
1.9999151889582765
1.9999151889582765
1.9999151889582765
1.9999151889582765
1.9999151889582765
1.9999151889582765
1.9999151889582765
1.9999151889582765
1.9999151889582765
1.9999151889582765
1.9999151889582765
1.9999151889582765
1.9999151889582765
1.9999151889582765
1.9999151889582765
1.9999151889582765
1.9999151889582765
1.9999151889582765
1.9999151889582765
1.9999151889582765
1.9999151889582765
1.9999151889582765
1.9999151889582765
1.9999151889582765
1.9999151889582765
1.9999151889582765
1.9999151889582765
1.0043634447259042
1.0023053824551011
1.0043733427270043
1.0031476561972295
1.0043718404578859
1.003846147161555
1.0043697814328603
1.0042293909046931
1.0043691442439566
1.0043449712929189
1.0043690492194577
1.0043661929859542
1.004369040425144
1.0043687953981904
1.0043690398458824
1.0043690083691428
1.0043690398458824
1.0043687953981904
1.004369040425144
1.0043661929859542
1.0043690492194577
1.0043449712929189
1.0043691442439566
1.0042293909046931
1.0043697814328603
1.003846147161555
1.0043718404578859
1.0031476561972295
1.0043733427270043
1.0023053824551011
1.0043634447259042
1.0000453978687025
1.0000809714869634
1.0000846813976945
1.0000809565329243
1.0000825421707702
1.0000809543127929
1.0000814506596001
1.0000809560990687
1.0000810857326854
1.0000809568420763
1.0000809821165262
1.0000809569731477
1.0000809604582239
1.0000809569869462
1.0000809573329696
1.0000809569879454
1.000080957038388
1.0000809569879454
1.0000809573329696
1.0000809569869462
1.0000809604582239
1.0000809569731477
1.0000809821165262
1.0000809568420763
1.0000810857326854
1.0000809560990687
1.0000814506596001
1.0000809543127929
1.0000825421707702
1.0000809565329243
1.0000846813976945
1.0000809714869634
1.0000848110417238
1.0027689358071195
1.0009920542084925
1.0027735914553544
1.0017554307761416
1.0027737039319742
1.0024001392525623
1.0027729676852908
1.0026883643973292
1.0027727501482777
1.0027601972830387
1.0027727211051498
1.0027714216888202
1.0027727186669095
1.0027726197361058
1.0027727185188957
1.0027727071000998
1.0027727185188957
1.0027726197361058
1.0027727186669095
1.0027714216888202
1.0027727211051498
1.0027601972830387
1.0027727501482777
1.0026883643973292
1.0027729676852908
1.0024001392525623
1.0027737039319742
1.0017554307761416
1.0027735914553544
1.0009920542084925
1.0027689358071195
1.0001584362191025
1.0002884571842261
1.0002930827998806
1.0002884661150102
1.0002902703291723
1.0002884641784038
1.0002890621279734
1.0002884633816822
1.0002886134886493
1.0002884633145521
1.0002884892830506
1.0002884633172786
1.0002884664368015
1.0002884633182465
1.0002884635895775
1.0002884633183429
1.0002884633535181
1.0002884633183429
1.0002884635895775
1.0002884633182465
1.0002884664368015
1.0002884633172786
1.0002884892830506
1.0002884633145521
1.0002886134886493
1.0002884633816822
1.0002890621279734
1.0002884641784038
1.0002902703291723
1.0002884661150102
1.0002930827998806
1.0002884571842261
1.0002959571135133
1.0023973335875049
1.0012321829825885
1.0023987019352176
1.001864669964206
1.0023988498558225
1.0022450513501988
1.002398727118738
1.002370459307997
1.0023986928315298
1.0023951767968418
1.0023986886197056
1.0023983759857871
1.0023986882892497
1.002398667485678
1.0023986882704059
1.0023986861405525
1.0023986882704059
1.002398667485678
1.0023986882892497
1.0023983759857871
1.0023986886197056
1.0023951767968418
1.0023986928315298
1.002370459307997
1.002398727118738
1.0022450513501988
1.0023988498558225
1.001864669964206
1.0023987019352176
1.0012321829825885
1.0023973335875049
1.0005527786369237
1.0009768366525233
1.0010101405993777
1.0009768422929755
1.0009907914459144
1.0009768423416274
1.0009808833261706
1.0009768420166234
1.0009776383557747
1.0009768419565295
1.0009769516698683
1.0009768419512073
1.0009768529280065
1.0009768419509182
1.0009768427794792
1.0009768419509106
1.000976842047375
1.0009768419509106
1.0009768427794792
1.0009768419509182
1.0009768529280065
1.0009768419512073
1.0009769516698683
1.0009768419565295
1.0009776383557747
1.0009768420166234
1.0009808833261706
1.0009768423416274
1.0009907914459144
1.0009768422929755
1.0010101405993777
1.0009768366525233
1.001032231036755
1.0026518230240533
1.0022640772412219
1.002652080252022
1.002513694348272
1.0026521190477748
1.0026214705571419
1.002652108674994
1.0026477451550222
1.0026521055587236
1.002651686189983
1.002652105184535
1.0026520769923981
1.0026521051562374
1.002652103812619
1.0026521051547002
1.0026521050668407
1.0026521051547002
1.002652103812619
1.0026521051562374
1.0026520769923981
1.002652105184535
1.002651686189983
1.0026521055587236
1.0026477451550222
1.002652108674994
1.0026214705571419
1.0026521190477748
1.002513694348272
1.002652080252022
1.0022640772412219
1.0026518230240533
1.0019267346633276
1.0034265923867816
1.0035304680262211
1.0034266059364638
1.0034708937696466
1.003426606913119
1.003439464681873
1.0034266059809982
1.0034291276479719
1.003426605748857
1.0034269511554907
1.0034266057224956
1.0034266401147742
1.0034266057205585
1.0034266083075067
1.0034266057204531
1.0034266060209336
1.0034266057204531
1.0034266083075067
1.0034266057205585
1.0034266401147742
1.0034266057224956
1.0034269511554907
1.003426605748857
1.0034291276479719
1.0034266059809982
1.003439464681873
1.003426606913119
1.0034708937696466
1.0034266059364638
1.0035304680262211
1.0034265923867816
1.0035936025814203
1.0066561016912163
1.0067159798201648
1.006656159652757
1.0066958649518314
1.0066561665347349
1.0066711138539399
1.0066561638415563
1.0066595535575531
1.0066561630826756
1.0066566683188944
1.0066561629930115
1.0066562159603214
1.0066561629863182
1.0066561671033278
1.0066561629859534
1.0066561634744442
1.0066561629859534
1.0066561671033278
1.0066561629863182
1.0066562159603214
1.0066561629930115
1.0066566683188944
1.0066561630826756
1.0066595535575531
1.0066561638415563
1.0066711138539399
1.0066561665347349
1.0066958649518314
1.006656159652757
1.0067159798201648
1.0066561016912163
1.006692850924285
1.0120727811507328
1.0123119523946937
1.0120728460728103
1.0121798742283885
1.0120728476843908
1.012105342494128
1.0120728414946107
1.0120794271187137
1.012072839999576
1.0120737626432645
1.0120728398285241
1.0120729330956459
1.0120728398158096
1.0120728469011036
1.0120728398151113
1.0120728406431594
1.0120728398151113
1.0120728469011036
1.0120728398158096
1.0120729330956459
1.0120728398285241
1.0120737626432645
1.012072839999576
1.0120794271187137
1.0120728414946107
1.012105342494128
1.0120728476843908
1.0121798742283885
1.0120728460728103
1.0123119523946937
1.0120727811507328
1.0124316508531859
1.0225281973865783
1.0228502437933717
1.0225283308272992
1.0226791504149564
1.0225283298334427
1.0225758183899227
1.0225283153695082
1.0225381637462925
1.0225283119404776
1.0225297103990421
1.0225283115482029
1.022528453952348
1.0225283115189951
1.0225283223730093
1.0225283115173853
1.022528312786676
1.0225283115173853
1.0225283223730093
1.0225283115189951
1.022528453952348
1.0225283115482029
1.0225297103990421
1.0225283119404776
1.0225381637462925
1.0225283153695082
1.0225758183899227
1.0225283298334427
1.0226791504149564
1.0225283308272992
1.0228502437933717
1.0225281973865783
1.0229773699100257
1.0414545943782525
1.0419098389199384
1.041454846661058
1.0416681030300143
1.0414548322872057
1.0415226016944596
1.0414548007475277
1.0414689537436523
1.0414547935154912
1.0414568088795342
1.0414547926946933
1.0414549977398668
1.0414547926337752
1.041454808203494
1.0414547926304196
1.0414547944405372
1.0414547926304196
1.041454808203494
1.0414547926337752
1.0414549977398668
1.0414547926946933
1.0414568088795342
1.0414547935154912
1.0414689537436523
1.0414548007475277
1.0415226016944596
1.0414548322872057
1.0416681030300143
1.041454846661058
1.0419098389199384
1.0414545943782525
1.0420877279156189
1.075039456559433
1.0756296222847834
1.075039908617053
1.0753203272102942
1.0750398580166056
1.0751304112639002
1.0750397951613679
1.0750588293617103
1.0750397812720578
1.0750424866759449
1.0750397797165629
1.075040052839898
1.0750397796021571
1.075039800094667
1.075039779595913
1.075039781943508
1.075039779595913
1.075039800094667
1.0750397796021571
1.075040052839898
1.0750397797165629
1.0750424866759449
1.0750397812720578
1.0750588293617103
1.0750397951613679
1.0751304112639002
1.0750398580166056
1.0753203272102942
1.075039908617053
1.0756296222847834
1.075039456559433
1.0758581800212434
1.1318507384280108
1.1325917340842018
1.1318514869741523
1.1322054413041511
1.1318513551545253
1.1319664003429479
1.1318512410580883
1.1318753012640588
1.1318512170325172
1.1318545871128376
1.13185121440821
1.1318515474419117
1.1318512142190116
1.1318512385566637
1.1318512142088799
1.1318512169154902
1.1318512142088799
1.1318512385566637
1.1318512142190116
1.1318515474419117
1.13185121440821
1.1318545871128376
1.1318512170325172
1.1318753012640588
1.1318512410580883
1.1319664003429479
1.1318513551545253
1.1322054413041511
1.1318514869741523
1.1325917340842018
1.1318507384280108
1.1329642401978293
1.2210823840942604
1.2219707426401158
1.2210834945668505
1.2215099925724688
1.2210832189971605
1.2212215560784592
1.2210830341878505
1.2211114311658466
1.2210829974828128
1.2210868526431466
1.2210829936258474
1.2210833595804118
1.2210829933572291
1.2210830188716835
1.2210829933433509
1.2210829960383582
1.2210829933433509
1.2210830188716835
1.2210829933572291
1.2210833595804118
1.2210829936258474
1.2210868526431466
1.2210829974828128
1.2211114311658466
1.2210830341878505
1.2212215560784592
1.2210832189971605
1.2215099925724688
1.2210834945668505
1.2219707426401158
1.2210823840942604
1.2227001388253087
1.3462202964364349
1.3472250680228484
1.346221737870382
1.3467107829158043
1.3462212709497823
1.3463781579480958
1.3462210095448754
1.3462520272365517
1.3462209611678322
1.3462249472283909
1.3462209563837941
1.3462213106337253
1.3462209560700766
1.3462209790200164
1.3462209560548677
1.3462209582980764
1.3462209560548677
1.3462209790200164
1.3462209560700766
1.3462213106337253
1.3462209563837941
1.3462249472283909
1.3462209611678322
1.3462520272365517
1.3462210095448754
1.3463781579480958
1.3462212709497823
1.3467107829158043
1.346221737870382
1.3472250680228484
1.3462202964364349
1.3486451353339457
1.496612806830415
1.4976922819981586
1.4966144240764672
1.49714972070608
1.4966138043919939
1.4967793430500416
1.4966134986618218
1.4966440551882945
1.496613447207721
1.4966170593410211
1.4966134425643691
1.4966137357569158
1.4966134422857846
1.4966134595675498
1.4966134422734312
1.4966134438089018
1.4966134422734312
1.4966134595675498
1.4966134422857846
1.4966137357569158
1.4966134425643691
1.4966170593410211
1.496613447207721
1.4966440551882945
1.4966134986618218
1.4967793430500416
1.4966138043919939
1.49714972070608
1.4966144240764672
1.4976922819981586
1.496612806830415
1.5
1.6472995006731741
1.6484312946080748
1.6473010123773291
1.6478510565055555
1.6473004143590582
1.6474571618777007
1.6473001436705856
1.6473263647467731
1.647300102806476
1.647302903343639
1.6473000994766192
1.647300304965144