# vtk DataFile Version 3.0
Euler density step 68
ASCII
DATASET STRUCTURED_POINTS
DIMENSIONS 32 32 32
ORIGIN 0 0 0
SPACING 0.3125 0.3125 0.3125
POINT_DATA 32768
SCALARS density double 1
LOOKUP_TABLE default
1.0005874787727826
1.0005427768877098
1.0005874802697667
1.0005862146169751
1.0005874798624756
1.0005874615399284
1.0005874798586814
1.0005874797035559
1.0005874798586605
1.0005874798578247
1.0005874798586605
1.0005874798586578
1.0005874798586605
1.0005874798586605
1.0005874798586605
1.0005874798586605
1.0005874798586605
1.0005874798586605
1.0005874798586605
1.0005874798586578
1.0005874798586605
1.0005874798578247
1.0005874798586605
1.0005874797035559
1.0005874798586814
1.0005874615399284
1.0005874798624756
1.0005862146169751
1.0005874802697667
1.0005427768877098
1.0005874787727826
1.0000453978687025
1.0000849390795363
1.0000849463116115
1.0000849390795639
1.0000849394755709
1.0000849390796041
1.000084939087138
1.0000849390796045
1.0000849390796795
1.0000849390796045
1.0000849390796054
1.0000849390796045
1.0000849390796045
1.0000849390796045
1.0000849390796045
1.0000849390796045
1.0000849390796045
1.0000849390796045
1.0000849390796045
1.0000849390796045
1.0000849390796045
1.0000849390796045
1.0000849390796054
1.0000849390796045
1.0000849390796795
1.0000849390796045
1.000084939087138
1.0000849390796041
1.0000849394755709
1.0000849390795639
1.0000849463116115
1.0000849390795363
1.0000848110417238
1.0002042986120108
1.0002018010100684
1.0002042987329851
1.0002042448239965
1.0002042987302835
1.0002042981230685
1.0002042987302495
1.0002042987261661
1.0002042987302493
1.000204298730232
1.0002042987302493
1.0002042987302493
1.0002042987302493
1.0002042987302493
1.0002042987302493
1.0002042987302493
1.0002042987302493
1.0002042987302493
1.0002042987302493
1.0002042987302493
1.0002042987302493
1.000204298730232
1.0002042987302493
1.0002042987261661
1.0002042987302495
1.0002042981230685
1.0002042987302835
1.0002042448239965
1.0002042987329851
1.0002018010100684
1.0002042986120108
1.0001584362191025
1.0002958269135258
1.0002958490682641
1.0002958269135154
1.0002958275769043
1.0002958269135158
1.0002958269236206
1.0002958269135158
1.0002958269136053
1.0002958269135158
1.0002958269135165
1.0002958269135158
1.0002958269135158
1.0002958269135158
1.0002958269135158
1.0002958269135158
1.0002958269135158
1.0002958269135158
1.0002958269135158
1.0002958269135158
1.0002958269135158
1.0002958269135158
1.0002958269135165
1.0002958269135158
1.0002958269136053
1.0002958269135158
1.0002958269236206
1.0002958269135158
1.0002958275769043
1.0002958269135154
1.0002958490682641
1.0002958269135258
1.0002959571135133
1.0005538321857517
1.0005538167670749
1.0005538321868128
1.0005538324282555
1.0005538321868046
1.0005538321961445
1.0005538321868044
1.0005538321869147
1.0005538321868044
1.0005538321868046
1.0005538321868044
1.0005538321868044
1.0005538321868044
1.0005538321868044
1.0005538321868044
1.0005538321868044
1.0005538321868044
1.0005538321868044
1.0005538321868044
1.0005538321868044
1.0005538321868044
1.0005538321868046
1.0005538321868044
1.0005538321869147
1.0005538321868044
1.0005538321961445
1.0005538321868046
1.0005538324282555
1.0005538321868128
1.0005538167670749
1.0005538321857517
1.0005527786369237
1.0010317669302049
1.0010318383443588
1.0010317669302105
1.0010317690378991
1.0010317669302098
1.0010317669620501
1.0010317669302098
1.0010317669304913
1.0010317669302098
1.0010317669302111
1.0010317669302098
1.0010317669302098
1.0010317669302098
1.0010317669302098
1.0010317669302098
1.0010317669302098
1.0010317669302098
1.0010317669302098
1.0010317669302098
1.0010317669302098
1.0010317669302098
1.0010317669302111
1.0010317669302098
1.0010317669304913
1.0010317669302098
1.0010317669620501
1.0010317669302098
1.0010317690378991
1.0010317669302105
1.0010318383443588
1.0010317669302049
1.001032231036755
1.0019258836333242
1.0019260144262736
1.0019258836333496
1.0019258874924621
1.0019258836333458
1.0019258836915665
1.0019258836333458
1.0019258836338605
1.0019258836333458
1.001925883633348
1.0019258836333458
1.0019258836333458
1.0019258836333458
1.0019258836333458
1.0019258836333458
1.0019258836333458
1.0019258836333458
1.0019258836333458
1.0019258836333458
1.0019258836333458
1.0019258836333458
1.001925883633348
1.0019258836333458
1.0019258836338605
1.0019258836333458
1.0019258836915665
1.0019258836333458
1.0019258874924621
1.0019258836333496
1.0019260144262736
1.0019258836333242
1.0019267346633276
1.0035919731482268
1.0035922158482429
1.0035919731482894
1.0035919802723894
1.0035919731482779
1.0035919732553769
1.0035919731482779
1.0035919731492222
1.0035919731482779
1.003591973148283
1.0035919731482779
1.0035919731482779
1.0035919731482779
1.0035919731482779
1.0035919731482779
1.0035919731482779
1.0035919731482779
1.0035919731482779
1.0035919731482779
1.0035919731482779
1.0035919731482779
1.003591973148283
1.0035919731482779
1.0035919731492222
1.0035919731482779
1.0035919732553769
1.0035919731482779
1.0035919802723894
1.0035919731482894
1.0035922158482429
1.0035919731482268
1.0035936025814203
1.0066897966479247
1.0066902445249553
1.0066897966481367
1.0066898097513501
1.0066897966480948
1.0066897968444364
1.0066897966480941
1.0066897966498201
1.0066897966480941
1.0066897966481039
1.0066897966480941
1.0066897966480941
1.0066897966480941
1.0066897966480941
1.0066897966480941
1.0066897966480941
1.0066897966480941
1.0066897966480941
1.0066897966480941
1.0066897966480941
1.0066897966480941
1.0066897966481039
1.0066897966480941
1.0066897966498201
1.0066897966480941
1.0066897968444364
1.0066897966480948
1.0066898097513501
1.0066897966481367
1.0066902445249553
1.0066897966479247
1.006692850924285
1.0124259101424244
1.0124267324335148
1.0124259101431057
1.0124259340718744
1.0124259101429629
1.0124259104995834
1.0124259101429613
1.0124259101460791
1.0124259101429613
1.0124259101429784
1.0124259101429613
1.0124259101429613
1.0124259101429613
1.0124259101429613
1.0124259101429613
1.0124259101429613
1.0124259101429613
1.0124259101429613
1.0124259101429613
1.0124259101429613
1.0124259101429613
1.0124259101429784
1.0124259101429613
1.0124259101460791
1.0124259101429613
1.0124259104995834
1.0124259101429629
1.0124259340718744
1.0124259101431057
1.0124267324335148
1.0124259101424244
1.0124316508531859
1.0229665148188516
1.0229680085854878
1.022966514820935
1.0229665578848275
1.0229665148204663
1.0229665154561476
1.0229665148204605
1.0229665148259652
1.0229665148204605
1.0229665148204909
1.0229665148204605
1.0229665148204605
1.0229665148204605
1.0229665148204605
1.0229665148204605
1.0229665148204605
1.0229665148204605
1.0229665148204605
1.0229665148204605
1.0229665148204605
1.0229665148204605
1.0229665148204909
1.0229665148204605
1.0229665148259652
1.0229665148204605
1.0229665154561476
1.0229665148204663
1.0229665578848275
1.022966514820935
1.0229680085854878
1.0229665148188516
1.0229773699100257
1.0420669713403548
1.0420696358447521
1.0420669713462667
1.0420670469018951
1.0420669713447892
1.0420669724412377
1.0420669713447743
1.0420669713541035
1.0420669713447741
1.0420669713448241
1.0420669713447741
1.0420669713447746
1.0420669713447741
1.0420669713447741
1.0420669713447741
1.0420669713447741
1.0420669713447741
1.0420669713447741
1.0420669713447741
1.0420669713447746
1.0420669713447741
1.0420669713448241
1.0420669713447741
1.0420669713541035
1.0420669713447743
1.0420669724412377
1.0420669713447892
1.0420670469018951
1.0420669713462667
1.0420696358447521
1.0420669713403548
1.0420877279156189
1.0758178921756401
1.0758225083920256
1.0758178921906865
1.0758180194178661
1.0758178921863444
1.0758178939787744
1.0758178921863022
1.0758178922010946
1.075817892186302
1.0758178921863795
1.075817892186302
1.0758178921863022
1.075817892186302
1.075817892186302
1.075817892186302
1.075817892186302
1.075817892186302
1.075817892186302
1.075817892186302
1.0758178921863022
1.075817892186302
1.0758178921863795
1.075817892186302
1.0758178922010946
1.0758178921863022
1.0758178939787744
1.0758178921863444
1.0758180194178661
1.0758178921906865
1.0758225083920256
1.0758178921756401
1.0758581800212434
1.1328854651371103
1.1328931099839186
1.1328854651703277
1.1328856662765365
1.1328854651588711
1.1328854678570774
1.132885465158765
1.1328854651799427
1.1328854651587648
1.1328854651588705
1.1328854651587648
1.132885465158765
1.1328854651587648
1.1328854651587648
1.1328854651587648
1.1328854651587648
1.1328854651587648
1.1328854651587648
1.1328854651587648
1.132885465158765
1.1328854651587648
1.1328854651588705
1.1328854651587648
1.1328854651799427
1.132885465158765
1.1328854678570774
1.1328854651588711
1.1328856662765365
1.1328854651703277
1.1328931099839186
1.1328854651371103
1.1329642401978293
1.2225502265782417
1.222562034728647
1.2225502266398891
1.2225505161825596
1.2225502266143093
1.2225502302232492
1.222550226614094
1.2225502266403603
1.2225502266140928
1.2225502266142154
1.2225502266140928
1.2225502266140928
1.2225502266140928
1.2225502266140928
1.2225502266140928
1.2225502266140928
1.2225502266140928
1.2225502266140928
1.2225502266140928
1.2225502266140928
1.2225502266140928
1.2225502266142154
1.2225502266140928
1.2225502266403603
1.222550226614094
1.2225502302232492
1.2225502266143093
1.2225505161825596
1.2225502266398891
1.222562034728647
1.2225502265782417
1.2227001388253087
1.3483851742408186
1.3484015739125546
1.3483851743335442
1.3483855407561609
1.3483851742888098
1.3483851784351646
1.3483851742884714
1.3483851743158199
1.3483851742884698
1.3483851742885844
1.3483851742884698
1.3483851742884707
1.3483851742884698
1.3483851742884698
1.3483851742884698
1.3483851742884698
1.3483851742884698
1.3483851742884698
1.3483851742884698
1.3483851742884707
1.3483851742884698
1.3483851742885844
1.3483851742884698
1.3483851743158199
1.3483851742884714
1.3483851784351646
1.3483851742888098
1.3483855407561609
1.3483851743335442
1.3484015739125546
1.3483851742408186
1.3486451353339457
1.4996184159885073
1.4996380570538088
1.4996184160965931
1.4996188117383324
1.4996184160395996
1.4996184200635876
1.4996184160392192
1.4996184160630459
1.4996184160392183
1.4996184160393082
1.4996184160392183
1.4996184160392185
1.4996184160392183
1.4996184160392183
1.4996184160392183
1.4996184160392183
1.4996184160392183
1.4996184160392183
1.4996184160392183
1.4996184160392185
1.4996184160392183
1.4996184160393082
1.4996184160392183
1.4996184160630459
1.4996184160392192
1.4996184200635876
1.4996184160395996
1.4996188117383324
1.4996184160965931
1.4996380570538088
1.4996184159885073
1.5
1.6509025869994121
1.6509223122602543
1.6509025870953216
1.6509029478941946
1.6509025870441534
1.6509025903701862
1.6509025870438494
1.6509025870616874
1.6509025870438485
1.6509025870439098
1.6509025870438485
1.6509025870438485
1.6509025870438485
1.6509025870438485
1.6509025870438485
1.6509025870438485
1.6509025870438485
1.6509025870438485
1.6509025870438485
1.6509025870438485
1.6509025870438485
1.6509025870439098
1.6509025870438485
1.6509025870616874
1.6509025870438494
1.6509025903701862
1.6509025870441534
1.6509029478941946
1.6509025870953216
1.6509223122602543
1.6509025869994121
1.6513548646660543
1.7768693917228811
1.7768860107342024
1.776869391789605
1.776869673388239
1.7768693917565836
1.7768693941600244
1.7768693917564045
1.7768693917683391
1.776869391756404
1.7768693917564415
1.776869391756404
1.7768693917564042
1.776869391756404
1.776869391756404
1.776869391756404
1.776869391756404
1.776869391756404
1.776869391756404
1.776869391756404
1.7768693917564042
1.776869391756404
1.7768693917564415
1.776869391756404
1.7768693917683391
1.7768693917564045
1.7768693941600244
1.7768693917565836
1.776869673388239
1.776869391789605
1.7768860107342024
1.7768693917228811
1.7772998611746911
1.8666969344534499
1.866708990167018
1.8666969344915385
1.8666971281068661
1.866696934475303
1.8666969360422843
1.8666969344752204
1.8666969344826019
1.86669693447522
1.8666969344752413
1.86669693447522
1.8666969344752202
1.86669693447522
1.86669693447522
1.86669693447522
1.86669693447522
1.86669693447522
1.86669693447522
1.86669693447522
1.8666969344752202
1.86669693447522
1.8666969344752413
1.86669693447522
1.8666969344826019
1.8666969344752204
1.8666969360422843
1.866696934475303
1.8666971281068661
1.8666969344915385
1.866708990167018
1.8666969344534499
1.8670357598021707
1.9239107253535517
1.9239185429187704
1.9239107253719003
1.9239108466550783
1.9239107253653669
1.9239107263145416
1.923910725365334
1.9239107253696603
1.9239107253653338
1.9239107253653469
1.9239107253653338
1.9239107253653338
1.9239107253653338
1.9239107253653338
1.9239107253653338
1.9239107253653338
1.9239107253653338
1.9239107253653338
1.9239107253653338
1.9239107253653338
1.9239107253653338
1.9239107253653469
1.9239107253653338
1.9239107253696603
1.923910725365334
1.9239107263145416
1.9239107253653669
1.9239108466550783
1.9239107253719003
1.9239185429187704
1.9239107253535517
1.9241418199787566
1.9577692509481486
1.9577739487651373
1.9577692509557467
1.957769322312956
1.9577692509534494
1.9577692515008112
1.9577692509534386
1.9577692509558855
1.9577692509534386
1.957769250953445
1.9577692509534386
1.9577692509534386
1.9577692509534386
1.9577692509534386
1.9577692509534386
1.9577692509534386
1.9577692509534386
1.9577692509534386
1.9577692509534386
1.9577692509534386
1.9577692509534386
1.957769250953445
1.9577692509534386
1.9577692509558855
1.9577692509534386
1.9577692515008112
1.9577692509534494
1.957769322312956
1.9577692509557467
1.9577739487651373
1.9577692509481486
1.9579122720843811
1.9769393722204227
1.9769420633201664
1.9769393722232014
1.9769394125937134
1.9769393722224584
1.9769393725285802
1.9769393722224551
1.9769393722238089
1.9769393722224551
1.9769393722224589
1.9769393722224551
1.9769393722224551
1.9769393722224551
1.9769393722224551
1.9769393722224551
1.9769393722224551
1.9769393722224551
1.9769393722224551
1.9769393722224551
1.9769393722224551
1.9769393722224551
1.9769393722224589
1.9769393722224551
1.9769393722238089
1.9769393722224551
1.9769393725285802
1.9769393722224584
1.9769394125937134
1.9769393722232014
1.9769420633201664
1.9769393722204227
1.9770226300899743
1.9875216257358699
1.9875231245070948
1.987521625736798
1.9875216480619111
1.9875216257365702
1.9875216259047743
1.9875216257365687
1.9875216257373083
1.9875216257365687
1.9875216257365711
1.9875216257365687
1.9875216257365687
1.9875216257365687
1.9875216257365687
1.9875216257365687
1.9875216257365687
1.9875216257365687
1.9875216257365687
1.9875216257365687
1.9875216257365687
1.9875216257365687
1.9875216257365711
1.9875216257365687
1.9875216257373083
1.9875216257365687
1.9875216259047743
1.9875216257365702
1.9875216480619111
1.987521625736798
1.9875231245070948
1.9875216257358699
1.9875683491468141
1.99328148059147
1.9932823027465307
1.993281480591762
1.9932814927913407
1.9932814805916934
1.9932814806832981
1.993281480591693
1.9932814805920944
1.993281480591693
1.9932814805916945
1.993281480591693
1.993281480591693
1.993281480591693
1.993281480591693
1.993281480591693
1.993281480591693
1.993281480591693
1.993281480591693
1.993281480591693
1.993281480591693
1.993281480591693
1.9932814805916945
1.993281480591693
1.9932814805920944
1.993281480591693
1.9932814806832981
1.9932814805916934
1.9932814927913407
1.993281480591762
1.9932823027465307
1.99328148059147
1.993307149075715
1.9963924597736082
1.9963929080085199
1.9963924597736964
1.9963924664116053
1.9963924597736762
1.9963924598234415
1.9963924597736762
1.9963924597738931
1.9963924597736762
1.9963924597736764
1.9963924597736762
1.9963924597736762
1.9963924597736762
1.9963924597736762
1.9963924597736762
1.9963924597736762
1.9963924597736762
1.9963924597736762
1.9963924597736762
1.9963924597736762
1.9963924597736762
1.9963924597736764
1.9963924597736762
1.9963924597738931
1.9963924597736762
1.9963924598234415
1.9963924597736762
1.9963924664116053
1.9963924597736964
1.9963929080085199
1.9963924597736082
1.9964063974185799
1.9980661439089329
1.9980663795149884
1.9980661439090439
1.9980661474485537
1.9980661439090368
1.998066143935785
1.9980661439090368
1.9980661439091549
1.9980661439090368
1.9980661439090368
1.9980661439090368
1.9980661439090368
1.9980661439090368
1.9980661439090368
1.9980661439090368
1.9980661439090368
1.9980661439090368
1.9980661439090368
1.9980661439090368
1.9980661439090368
1.9980661439090368
1.9980661439090368
1.9980661439090368
1.9980661439091549
1.9980661439090368
1.998066143935785
1.9980661439090368
1.9980661474485537
1.9980661439090439
1.9980663795149884
1.9980661439089329
1.9980732653366724
1.9989637230000377
1.9989638576719522
1.9989637230000432
1.9989637249925509
1.9989637230000412
1.9989637230149806
1.9989637230000412
1.9989637230001067
1.9989637230000412
1.9989637230000421
1.9989637230000412
1.9989637230000412
1.9989637230000412
1.9989637230000412
1.9989637230000412
1.9989637230000412
1.9989637230000412
1.9989637230000412
1.9989637230000412
1.9989637230000412
1.9989637230000412
1.9989637230000421
1.9989637230000412
1.9989637230001067
1.9989637230000412
1.9989637230149806
1.9989637230000412
1.9989637249925509
1.9989637230000432
1.9989638576719522
1.9989637230000377
1.9989677689632452
1.9994709084313009
1.9994702078251299
1.9994709084492233
1.999470900680276
1.9994709084489806
1.9994709084047981
1.9994709084489783
1.9994709084488298
1.9994709084489783
1.9994709084489781
1.9994709084489783
1.9994709084489783
1.9994709084489783
1.9994709084489783
1.9994709084489783
1.9994709084489783
1.9994709084489783
1.9994709084489783
1.9994709084489783
1.9994709084489783
1.9994709084489783
1.9994709084489781
1.9994709084489783
1.9994709084488298
1.9994709084489783
1.9994709084047981
1.9994709084489806
1.999470900680276
1.9994709084492233
1.9994702078251299
1.9994709084313009
1.9994472213630763
1.9997027814946176
1.9997028317485361
1.9997027814946089
1.9997027822561881
1.9997027814946169
1.9997027815003994
1.9997027814946169
1.999702781494642
1.9997027814946169
1.9997027814946169
1.9997027814946169
1.9997027814946169
1.9997027814946169
1.9997027814946169
1.9997027814946169
1.9997027814946169
1.9997027814946169
1.9997027814946169
1.9997027814946169
1.9997027814946169
1.9997027814946169
1.9997027814946169
1.9997027814946169
1.999702781494642
1.9997027814946169
1.9997027815003994
1.9997027814946169
1.9997027822561881
1.9997027814946089
1.9997028317485361
1.9997027814946176
1.999704042886487
2.0004732426385234
2.0004478030786905
2.0004732427533995
2.0004728536516918
2.0004732426841145
2.0004732397081608
2.0004732426837788
2.0004732426705787
2.0004732426837779
2.0004732426837406
2.0004732426837779
2.0004732426837775
2.0004732426837779
2.0004732426837779
2.0004732426837779
2.0004732426837779
2.0004732426837779
2.0004732426837779
2.0004732426837779
2.0004732426837775
2.0004732426837779
2.0004732426837406
2.0004732426837779
2.0004732426705787
2.0004732426837788
2.0004732397081608
2.0004732426841145
2.0004728536516918
2.0004732427533995
2.0004478030786905
2.0004732426385234
1.9998415637808975
1.9999151889582765
1.9999151889582765
1.9999151889582765
1.9999151889582765
1.9999151889582765
1.9999151889582765
1.9999151889582765
1.9999151889582765
1.9999151889582765
1.9999151889582765
1.9999151889582765
1.9999151889582765
1.9999151889582765
1.9999151889582765
1.9999151889582765
1.9999151889582765
1.9999151889582765
1.9999151889582765
1.9999151889582765
1.9999151889582765
1.9999151889582765
1.9999151889582765
1.9999151889582765
1.9999151889582765
1.9999151889582765
1.9999151889582765
1.9999151889582765
1.9999151889582765
1.9999151889582765
1.9999151889582765
1.9999151889582765
1.9999151889582765
1.0019479542089416
1.0018506536238316
1.0019479582082256
1.0019447862445789
1.0019479558486615
1.0019479037120869
1.0019479558217053
1.0019479553235777
1.0019479558215314
1.0019479558185067
1.0019479558215305
1.0019479558215181
1.0019479558215305
1.0019479558215305
1.0019479558215305
1.0019479558215305
1.0019479558215305
1.0019479558215305
1.0019479558215305
1.0019479558215181
1.0019479558215305
1.0019479558185067
1.0019479558215314
1.0019479553235777
1.0019479558217053
1.0019479037120869
1.0019479558486615
1.0019447862445789
1.0019479582082256
1.0018506536238316
1.0019479542089416
1.0000453978687025
1.0000859008470899
1.0000858371868613
1.0000859008476963
1.0000858990431127
1.0000859008474126
1.0000859008202603
1.0000859008474068
1.0000859008471639
1.0000859008474066
1.0000859008474059
1.0000859008474066
1.0000859008474066
1.0000859008474066
1.0000859008474066
1.0000859008474066
1.0000859008474066
1.0000859008474066
1.0000859008474066
1.0000859008474066
1.0000859008474066
1.0000859008474066
1.0000859008474059
1.0000859008474066
1.0000859008471639
1.0000859008474068
1.0000859008202603
1.0000859008474126
1.0000858990431127
1.0000859008476963
1.0000858371868613
1.0000859008470899
1.0000848110417238
1.0002584590637766
1.0002521943398168
1.0002584597047468
1.0002583059521399
1.0002584596850341
1.0002584577258844
1.0002584596847319
1.0002584596698456
1.0002584596847299
1.0002584596846569
1.0002584596847299
1.0002584596847293
1.0002584596847299
1.0002584596847299
1.0002584596847299
1.0002584596847299
1.0002584596847299
1.0002584596847299
1.0002584596847299
1.0002584596847293
1.0002584596847299
1.0002584596846569
1.0002584596847299
1.0002584596698456
1.0002584596847319
1.0002584577258844
1.0002584596850341
1.0002583059521399
1.0002584597047468
1.0002521943398168
1.0002584590637766
1.0001584362191025
1.0002953974325868
1.0002954253850114
1.0002953974326947
1.0002953982935607
1.0002953974326905
1.0002953974459898
1.0002953974326905
1.000295397432809
1.0002953974326905
1.0002953974326916
1.0002953974326905
1.0002953974326905
1.0002953974326905
1.0002953974326905
1.0002953974326905
1.0002953974326905
1.0002953974326905
1.0002953974326905
1.0002953974326905
1.0002953974326905
1.0002953974326905
1.0002953974326916
1.0002953974326905
1.000295397432809
1.0002953974326905
1.0002953974459898
1.0002953974326905
1.0002953982935607
1.0002953974326947
1.0002954253850114
1.0002953974325868
1.0002959571135133
1.0005548527773349
1.0005547580077929
1.0005548527843637
1.0005548516278748
1.0005548527842814
1.0005548527815067
1.0005548527842796
1.0005548527843342
1.0005548527842796
1.0005548527842802
1.0005548527842796
1.0005548527842796
1.0005548527842796
1.0005548527842796
1.0005548527842796
1.0005548527842796
1.0005548527842796
1.0005548527842796
1.0005548527842796
1.0005548527842796
1.0005548527842796
1.0005548527842802
1.0005548527842796
1.0005548527843342
1.0005548527842796
1.0005548527815067
1.0005548527842814
1.0005548516278748
1.0005548527843637
1.0005547580077929
1.0005548527773349
1.0005527786369237
1.0010299982354334
1.0010301108032271
1.0010299982354474
1.0010300015772209
1.0010299982354443
1.0010299982859561
1.0010299982354443
1.0010299982358903
1.0010299982354443
1.0010299982354469
1.0010299982354443
1.0010299982354443
1.0010299982354443
1.0010299982354443
1.0010299982354443
1.0010299982354443
1.0010299982354443
1.0010299982354443
1.0010299982354443
1.0010299982354443
1.0010299982354443
1.0010299982354469
1.0010299982354443
1.0010299982358903
1.0010299982354443
1.0010299982859561
1.0010299982354443
1.0010300015772209
1.0010299982354474
1.0010301108032271
1.0010299982354334
1.001032231036755
1.0019226182264287
1.0019228260163107
1.0019226182265166
1.0019226244202168
1.0019226182265066
1.0019226183202998
1.0019226182265064
1.0019226182273351
1.0019226182265064
1.0019226182265111
1.0019226182265064
1.0019226182265064
1.0019226182265064
1.0019226182265064
1.0019226182265064
1.0019226182265064
1.0019226182265064
1.0019226182265064
1.0019226182265064
1.0019226182265064
1.0019226182265064
1.0019226182265111
1.0019226182265064
1.0019226182273351
1.0019226182265064
1.0019226183202998
1.0019226182265066
1.0019226244202168
1.0019226182265166
1.0019228260163107
1.0019226182264287
1.0019267346633276
1.0035858348953652
1.0035862244606271
1.0035858348955113
1.0035858464413236
1.0035858348954776
1.0035858350697546
1.0035858348954771
1.0035858348970139
1.0035858348954771
1.0035858348954865
1.0035858348954771
1.0035858348954771
1.0035858348954771
1.0035858348954771
1.0035858348954771
1.0035858348954771
1.0035858348954771
1.0035858348954771
1.0035858348954771
1.0035858348954771
1.0035858348954771
1.0035858348954865
1.0035858348954771
1.0035858348970139
1.0035858348954771
1.0035858350697546
1.0035858348954776
1.0035858464413236
1.0035858348955113
1.0035862244606271
1.0035858348953652
1.0035936025814203
1.0066784196664917
1.0066791396992154
1.0066784196669718
1.0066784409591418
1.0066784196668557
1.006678419987491
1.0066784196668546
1.0066784196696745
1.0066784196668546
1.0066784196668708
1.0066784196668546
1.0066784196668546
1.0066784196668546
1.0066784196668546
1.0066784196668546
1.0066784196668546
1.0066784196668546
1.0066784196668546
1.0066784196668546
1.0066784196668546
1.0066784196668546
1.0066784196668708
1.0066784196668546
1.0066784196696745
1.0066784196668546
1.006678419987491
1.0066784196668557
1.0066784409591418
1.0066784196669718
1.0066791396992154
1.0066784196664917
1.006692850924285
1.012404956348733
1.0124062761166976
1.0124049563502449
1.0124049952057945
1.0124049563498547
1.012404956932268
1.0124049563498507
1.0124049563549515
1.0124049563498507
1.0124049563498794
1.0124049563498507
1.0124049563498509
1.0124049563498507
1.0124049563498507
1.0124049563498507
1.0124049563498507
1.0124049563498507
1.0124049563498507
1.0124049563498507
1.0124049563498509
1.0124049563498507
1.0124049563498794
1.0124049563498507
1.0124049563549515
1.0124049563498507
1.012404956932268
1.0124049563498547
1.0124049952057945
1.0124049563502449
1.0124062761166976
1.012404956348733
1.0124316508531859
1.0229283599265946
1.0229307445227898
1.0229283599310564
1.02292842956059
1.0229283599297891
1.0229283609644615
1.0229283599297763
1.0229283599387553
1.0229283599297763
1.0229283599298262
1.0229283599297763
1.0229283599297763
1.0229283599297763
1.0229283599297763
1.0229283599297763
1.0229283599297763
1.0229283599297763
1.0229283599297763
1.0229283599297763
1.0229283599297763
1.0229283599297763
1.0229283599298262
1.0229283599297763
1.0229283599387553
1.0229283599297763
1.0229283609644615
1.0229283599297891
1.02292842956059
1.0229283599310564
1.0229307445227898
1.0229283599265946
1.0229773699100257
1.0419988586232489
1.0420030670527103
1.0419988586352085
1.0419989796841802
1.0419988586313076
1.0419988604017689
1.0419988586312694
1.0419988586463844
1.0419988586312685
1.0419988586313502
1.0419988586312685
1.0419988586312694
1.0419988586312685
1.0419988586312685
1.0419988586312685
1.0419988586312685
1.0419988586312685
1.0419988586312685
1.0419988586312685
1.0419988586312694
1.0419988586312685
1.0419988586313502
1.0419988586312685
1.0419988586463844
1.0419988586312694
1.0419988604017689
1.0419988586313076
1.0419989796841802
1.0419988586352085
1.0420030670527103
1.0419988586232489
1.0420877279156189
1.075700357064262
1.0757075133758716
1.075700357092354
1.0757005575294494
1.0757003570813124
1.0757003599318748
1.0757003570812069
1.0757003571048489
1.0757003570812065
1.0757003570813308
1.0757003570812065
1.0757003570812069
1.0757003570812065
1.0757003570812065
1.0757003570812065
1.0757003570812065
1.0757003570812065
1.0757003570812065
1.0757003570812065
1.0757003570812069
1.0757003570812065
1.0757003570813308
1.0757003570812065
1.0757003571048489
1.0757003570812069
1.0757003599318748
1.0757003570813124
1.0757005575294494
1.075700357092354
1.0757075133758716
1.075700357064262
1.0758581800212434
1.1326938326925124
1.1327053274818217
1.1326938327486431
1.1326941406200013
1.132693832721277
1.1326938368985142
1.1326938327210267
1.1326938327540359
1.1326938327210259
1.1326938327211915
1.1326938327210259
1.1326938327210261
1.1326938327210259
1.1326938327210259
1.1326938327210259
1.1326938327210259
1.1326938327210259
1.1326938327210259
1.1326938327210259
1.1326938327210261
1.1326938327210259
1.1326938327211915
1.1326938327210259
1.1326938327540359
1.1326938327210267
1.1326938368985142
1.132693832721277
1.1326941406200013
1.1326938327486431
1.1327053274818217
1.1326938326925124
1.1329642401978293
1.2222650627679459
1.2222820011038129
1.2222650628617757
1.2222654862151987
1.2222650628063172
1.2222650681505101
1.2222650628058487
1.2222650628450826
1.2222650628058467
1.2222650628060301
1.2222650628058467
1.2222650628058476
1.2222650628058467
1.2222650628058467
1.2222650628058467
1.2222650628058467
1.2222650628058467
1.2222650628058467
1.2222650628058467
1.2222650628058476
1.2222650628058467
1.2222650628060301
1.2222650628058467
1.2222650628450826
1.2222650628058487
1.2222650681505101
1.2222650628063172
1.2222654862151987
1.2222650628617757
1.2222820011038129
1.2222650627679459
1.2227001388253087
1.3480151040875759
1.3480371208384985
1.3480151042149811
1.3480156053774242
1.3480151041301867
1.3480151098754178
1.348015104129541
1.3480151041677997
1.3480151041295387
1.3480151041297006
1.3480151041295387
1.3480151041295392
1.3480151041295387
1.3480151041295387
1.3480151041295387
1.3480151041295387
1.3480151041295387
1.3480151041295387
1.3480151041295387
1.3480151041295392
1.3480151041295387
1.3480151041297006
1.3480151041295387
1.3480151041677997
1.348015104129541
1.3480151098754178
1.3480151041301867
1.3480156053774242
1.3480151042149811
1.3480371208384985
1.3480151040875759
1.3486451353339457
1.4992175234361584
1.4992418455887275
1.4992175235705916
1.4992180215027107
1.4992175234784644
1.4992175286018161
1.4992175234778398
1.4992175235084411
1.4992175234778375
1.4992175234779541
1.4992175234778375
1.499217523477838
1.4992175234778375
1.4992175234778375
1.4992175234778375
1.4992175234778375
1.4992175234778375
1.4992175234778375
1.4992175234778375
1.499217523477838
1.4992175234778375
1.4992175234779541
1.4992175234778375
1.4992175235084411
1.4992175234778398
1.4992175286018161
1.4992175234784644
1.4992180215027107
1.4992175235705916
1.4992418455887275
1.4992175234361584
1.5
1.650547689614557
1.6505701953084422
1.6505476897243614
1.6505481068200456
1.6505476896536497
1.6505476935345589
1.6505476896532185
1.6505476896741751