# vtk DataFile Version 3.0
Euler density step 476
ASCII
DATASET STRUCTURED_POINTS
DIMENSIONS 32 32 32
ORIGIN 0 0 0
SPACING 0.3125 0.3125 0.3125
POINT_DATA 32768
SCALARS density double 1
LOOKUP_TABLE default
1.0086704749689592
1.0019373095493931
1.0087003926103022
1.0039987170034266
1.0087093435526242
1.0055210501697174
1.0087093537736764
1.0068380941160924
1.0087046514779243
1.0078783939042184
1.0087006503489633
1.0084385996713889
1.0086991812535413
1.0086373833657609
1.0086988758284401
1.0086780273831355
1.0086988758284401
1.0086373833657609
1.0086991812535413
1.0084385996713889
1.0087006503489633
1.0078783939042184
1.0087046514779243
1.0068380941160924
1.0087093537736764
1.0055210501697174
1.0087093435526242
1.0039987170034266
1.0087003926103022
1.0019373095493931
1.0086704749689592
1.0000453978687025
0.99993968108441955
1.0000402693889929
0.99993955727406569
0.99999714557425512
0.99993951870880593
0.99996690333993954
0.99993952191479651
0.99995047835729267
0.99993953478302577
0.99994326441958947
0.99993954487598768
0.99994059327844886
0.99993954897551318
0.99993978879763423
0.99993954995742051
0.99993963189630652
0.99993954995742051
0.99993978879763423
0.99993954897551318
0.99994059327844886
0.99993954487598768
0.99994326441958947
0.99993953478302577
0.99995047835729267
0.99993952191479651
0.99996690333993954
0.99993951870880593
0.99999714557425512
0.99993955727406569
1.0000402693889929
0.99993968108441955
1.0000848110417238
1.0080338854858715
1.002178556390424
1.0080509809730558
1.0038696100911024
1.0080597753540816
1.0051957510997753
1.0080614225845639
1.0064183145997434
1.0080581788765275
1.0073704107707115
1.0080553924314288
1.007851496018066
1.0080544563045242
1.0080098112811615
1.0080542790121616
1.0080402080565185
1.0080542790121616
1.0080098112811615
1.0080544563045242
1.007851496018066
1.0080553924314288
1.0073704107707115
1.0080581788765275
1.0064183145997434
1.0080614225845639
1.0051957510997753
1.0080597753540816
1.0038696100911024
1.0080509809730558
1.002178556390424
1.0080338854858715
1.0001584362191025
0.99991636304804843
1.0001745582710673
0.99991637347314022
1.0000677745344764
0.99991635902665665
0.999989489818363
0.99991634729041878
0.99994467310529722
0.99991634855314371
0.99992504330639409
0.99991635348248853
0.99991845357868248
0.99991635575744564
0.99991676134829943
0.99991635628589948
0.99991647584782573
0.99991635628589948
0.99991676134829943
0.99991635575744564
0.99991845357868248
0.99991635348248853
0.99992504330639409
0.99991634855314371
0.99994467310529722
0.99991634729041878
0.999989489818363
0.99991635902665665
1.0000677745344764
0.99991637347314022
1.0001745582710673
0.99991636304804843
1.0002959571135133
1.0065714989635322
1.0019213354981664
1.006579429759505
1.0031402978459523
1.0065856755015035
1.0042716088271195
1.0065871808884628
1.0053859667149718
1.0065854616606285
1.0061450933290876
1.0065842033376284
1.006469843068408
1.0065838452421525
1.0065617797096642
1.006583785816334
1.0065775456608075
1.006583785816334
1.0065617797096642
1.0065838452421525
1.006469843068408
1.0065842033376284
1.0061450933290876
1.0065854616606285
1.0053859667149718
1.0065871808884628
1.0042716088271195
1.0065856755015035
1.0031402978459523
1.006579429759505
1.0019213354981664
1.0065714989635322
1.0005527786369237
1.0002266633989896
1.0007860571136646
1.0002267832735539
1.0005652329837869
1.0002268527668721
1.000396417708435
1.000226854358951
1.000293567071423
1.0002268441600888
1.0002469198044692
1.0002268407900596
1.0002314581230329
1.0002268403378989
1.0002276748591223
1.0002268403165151
1.0002270707554619
1.0002268403165151
1.0002276748591223
1.0002268403378989
1.0002314581230329
1.0002268407900596
1.0002469198044692
1.0002268441600888
1.000293567071423
1.000226854358951
1.000396417708435
1.0002268527668721
1.0005652329837869
1.0002267832735539
1.0007860571136646
1.0002266633989896
1.001032231036755
1.0061675461366499
1.0029253159456684
1.0061711712232357
1.0038730291076989
1.0061745541020775
1.0048179226159333
1.006175316566555
1.0055882111773886
1.0061747855788388
1.0059954994550908
1.0061744553375596
1.0061351231872349
1.0061743738228541
1.0061678989109475
1.0061743616065821
1.0061727716478857
1.0061743616065821
1.0061678989109475
1.0061743738228541
1.0061351231872349
1.0061744553375596
1.0059954994550908
1.0061747855788388
1.0055882111773886
1.006175316566555
1.0048179226159333
1.0061745541020775
1.0038730291076989
1.0061711712232357
1.0029253159456684
1.0061675461366499
1.0019267346633276
1.0021332536760452
1.0031807189498823
1.0021335980527604
1.002797600661945
1.0021338465561147
1.0024875789125298
1.002133874154199
1.0022813216074622
1.0021338361860126
1.0021802022245683
1.0021338175013235
1.0021448153823076
1.0021338133180209
1.0021358454302349
1.0021338127300585
1.0021343827757516
1.0021338127300585
1.0021358454302349
1.0021338133180209
1.0021448153823076
1.0021338175013235
1.0021802022245683
1.0021338361860126
1.0022813216074622
1.002133874154199
1.0024875789125298
1.0021338465561147
1.002797600661945
1.0021335980527604
1.0031807189498823
1.0021332536760452
1.0035936025814203
1.0083281931971153
1.0072196264002746
1.0083299598494249
1.0076930230862582
1.0083314654833244
1.0080780391978201
1.0083317877989306
1.0082772424488133
1.0083316672624261
1.008331102303162
1.0083315909820856
1.0083349536263919
1.0083315725856732
1.0083327435851095
1.008331569878822
1.0083320173850157
1.008331569878822
1.0083327435851095
1.0083315725856732
1.0083349536263919
1.0083315909820856
1.008331102303162
1.0083316672624261
1.0082772424488133
1.0083317877989306
1.0080780391978201
1.0083314654833244
1.0076930230862582
1.0083299598494249
1.0072196264002746
1.0083281931971153
1.006692850924285
1.0101268918777937
1.0118329956316556
1.0101278194665313
1.0112515495713756
1.0101284625792073
1.0107618738665747
1.0101285078649289
1.0104085699642413
1.0101283655712108
1.0102210009494059
1.0101282941286891
1.0101511730754387
1.0101282774047489
1.010132644562006
1.010128274962486
1.0101295304997664
1.010128274962486
1.010132644562006
1.0101282774047489
1.0101511730754387
1.0101282941286891
1.0102210009494059
1.0101283655712108
1.0104085699642413
1.0101285078649289
1.0107618738665747
1.0101284625792073
1.0112515495713756
1.0101278194665313
1.0118329956316556
1.0101268918777937
1.0124316508531859
1.0217884063532245
1.0228357621389854
1.021790140323442
1.0226174958790835
1.0217913060923181
1.0223601365492945
1.0217914148565845
1.0220845253212023
1.0217911782947795
1.0218984145698755
1.0217910527658876
1.0218193004713867
1.0217910223520394
1.0217966481852201
1.021791017808239
1.021792679329711
1.021791017808239
1.0217966481852201
1.0217910223520394
1.0218193004713867
1.0217910527658876
1.0218984145698755
1.0217911782947795
1.0220845253212023
1.0217914148565845
1.0223601365492945
1.0217913060923181
1.0226174958790835
1.021790140323442
1.0228357621389854
1.0217884063532245
1.0229773699100257
1.0387825478466435
1.0412946617768681
1.0387850184323673
1.0404621730699319
1.0387863798681396
1.0397676367803594
1.0387863357396045
1.0392398638232194
1.0387858990636409
1.0389416149384798
1.0387856856601649
1.0388252086237031
1.0387856349494513
1.0387933235268243
1.038785627420586
1.0387878642357917
1.038785627420586
1.0387933235268243
1.0387856349494513
1.0388252086237031
1.0387856856601649
1.0389416149384798
1.0387858990636409
1.0392398638232194
1.0387863357396045
1.0397676367803594
1.0387863798681396
1.0404621730699319
1.0387850184323673
1.0412946617768681
1.0387825478466435
1.0420877279156189
1.0724438617805401
1.0751501128491459
1.0724479462175205
1.0742985950626525
1.0724497616416788
1.0735752696886236
1.0724495535422862
1.0729868409070293
1.0724488533888659
1.0726368826026398
1.0724485203685901
1.072496651245215
1.0724484416154023
1.0724578160994827
1.0724484299493922
1.0724511490059625
1.0724484299493922
1.0724578160994827
1.0724484416154023
1.072496651245215
1.0724485203685901
1.0726368826026398
1.0724488533888659
1.0729868409070293
1.0724495535422862
1.0735752696886236
1.0724497616416788
1.0742985950626525
1.0724479462175205
1.0751501128491459
1.0724438617805401
1.0758581800212434
1.128309437124615
1.1319155199315216
1.1283162912978451
1.1306702417664509
1.1283184653591571
1.1297084945488156
1.1283178607318629
1.1289711094944443
1.1283167606149251
1.1285426238043148
1.1283162665470718
1.1283733111204672
1.128316152650283
1.1283270820929625
1.1283161360695273
1.1283192514870071
1.1283161360695273
1.1283270820929625
1.128316152650283
1.1283733111204672
1.1283162665470718
1.1285426238043148
1.1283167606149251
1.1289711094944443
1.1283178607318629
1.1297084945488156
1.1283184653591571
1.1306702417664509
1.1283162912978451
1.1319155199315216
1.128309437124615
1.1329642401978293
1.2172574381073675
1.2214642363953863
1.21726846762347
1.2199813450914045
1.2172706713701651
1.2188814157603505
1.2172694041943828
1.2180281122840158
1.2172677775231224
1.2175277796850075
1.2172670911441827
1.217331554526655
1.2172669388002575
1.2172789710348233
1.2172669172962962
1.2172702499886143
1.2172669172962962
1.2172789710348233
1.2172669388002575
1.217331554526655
1.2172670911441827
1.2175277796850075
1.2172677775231224
1.2180281122840158
1.2172694041943828
1.2188814157603505
1.2172706713701651
1.2199813450914045
1.21726846762347
1.2214642363953863
1.2172574381073675
1.2227001388253087
1.3419093965640112
1.346792687406736
1.3419254618756538
1.3450402401277999
1.3419271273886566
1.3437794383434332
1.3419248803040325
1.3427915733823794
1.3419226086409715
1.3422135124966146
1.3419217181068344
1.3419915845860271
1.3419215310080945
1.3419340515555147
1.3419215058138139
1.3419248269113149
1.3419215058138139
1.3419340515555147
1.3419215310080945
1.3419915845860271
1.3419217181068344
1.3422135124966146
1.3419226086409715
1.3427915733823794
1.3419248803040325
1.3437794383434332
1.3419271273886566
1.3450402401277999
1.3419254618756538
1.346792687406736
1.3419093965640112
1.3486451353339457
1.4916192251069258
1.4968836728562436
1.4916397853766405
1.49505219504057
1.4916402144317977
1.4937006973442635
1.4916367830266473
1.4925937509942822
1.4916338541620651
1.4919458732518815
1.4916327943418066
1.4917045562160614
1.4916325864992444
1.4916447710336567
1.4916325601955214
1.4916356133831132
1.4916325601955214
1.4916447710336567
1.4916325864992444
1.4917045562160614
1.4916327943418066
1.4919458732518815
1.4916338541620651
1.4925937509942822
1.4916367830266473
1.4937006973442635
1.4916402144317977
1.49505219504057
1.4916397853766405
1.4968836728562436
1.4916192251069258
1.5
1.6410335127163405
1.6464507825093051
1.6410567430702192
1.6446745205833835
1.6410559821977897
1.6432737988512469
1.6410515500248746
1.642063757248954
1.641048156814531
1.6413644721291651
1.6410470314370509
1.6411157525062985
1.6410468285548359
1.6410577423046417
1.641046804795971
1.6410493585334269
1.641046804795971
1.6410577423046417
1.6410468285548359
1.6411157525062985
1.6410470314370509
1.6413644721291651
1.641048156814531
1.642063757248954
1.6410515500248746
1.6432737988512469
1.6410559821977897
1.6446745205833835
1.6410567430702192
1.6464507825093051
1.6410335127163405
1.6513548646660543
1.7658947373365059
1.7712898529645826
1.765917651229886
1.7696476442484141
1.7659170022434305
1.7682151808260791
1.765912229666615
1.766923725054955
1.7659087967007121
1.7662066584910026
1.7659077617953167
1.765968131873237
1.7659075920657512
1.7659164857753289
1.7659075738044587
1.7659095065994985
1.7659075738044587
1.7659164857753289
1.7659075920657512
1.765968131873237
1.7659077617953167
1.7662066584910026
1.7659087967007121
1.766923725054955
1.765912229666615
1.7682151808260791
1.7659170022434305
1.7696476442484141
1.765917651229886
1.7712898529645826
1.7658947373365059
1.7772998611746911
1.8557247323309949
1.8611360207157912
1.8557452353942732
1.8595404000448208
1.8557455910000615
1.8580221374757555
1.8557411719365382
1.8566827750158799
1.8557381771985533
1.8559957201497088
1.8557373619511985
1.8557857570476364
1.8557372404367809
1.8557438490793465
1.8557372283949871
1.8557385648546065
1.8557372283949871
1.8557438490793465
1.8557372404367809
1.8557857570476364
1.8557373619511985
1.8559957201497088
1.8557381771985533
1.8566827750158799
1.8557411719365382
1.8580221374757555
1.8557455910000615
1.8595404000448208
1.8557452353942732
1.8611360207157912
1.8557247323309949
1.8670357598021707
1.9141273164528636
1.9193269886725994
1.9141439206449307
1.9178154719636591
1.914145111783969
1.9162441044981533
1.9141415797121188
1.9149470124241768
1.9141393411855356
1.9143432874474846
1.9141387891158999
1.9141744119405311
1.9141387137492327
1.9141432511886216
1.914138706810079
1.914139567315462
1.914138706810079
1.9141432511886216
1.9141387137492327
1.9141744119405311
1.9141387891158999
1.9143432874474846
1.9141393411855356
1.9149470124241768
1.9141415797121188
1.9162441044981533
1.914145111783969
1.9178154719636591
1.9141439206449307
1.9193269886725994
1.9141273164528636
1.9241418199787566
1.9488519399682671
1.9539887326841396
1.9488643169106212
1.9523189756978088
1.9488657559752787
1.9506793317780844
1.9488632761107014
1.94950135230643
1.9488618215000642
1.9490114886157983
1.9488614944191471
1.9488859429475596
1.9488614530984312
1.9488643843385227
1.9488614495271923
1.9488619761389878
1.9488614495271923
1.9488643843385227
1.9488614530984312
1.9488859429475596
1.9488614944191471
1.9490114886157983
1.9488618215000642
1.94950135230643
1.9488632761107014
1.9506793317780844
1.9488657559752787
1.9523189756978088
1.9488643169106212
1.9539887326841396
1.9488519399682671
1.9579122720843811
1.9705946490834161
1.9745113522441726
1.9706028455173792
1.9732745084067909
1.9706041953877056
1.9719596053652153
1.9706027538366793
1.9710549708885066
1.9706019420332193
1.9707024943530305
1.9706017714803008
1.9706174091943605
1.9706017511641265
1.9706035434837297
1.9706017494931192
1.9706020587690407
1.9706017494931192
1.9706035434837297
1.9706017511641265
1.9706174091943605
1.9706017714803008
1.9707024943530305
1.9706019420332193
1.9710549708885066
1.9706027538366793
1.9719596053652153
1.9706041953877056
1.9732745084067909
1.9706028455173792
1.9745113522441726
1.9705946490834161
1.9770226300899743
1.98126535456643
1.9851850173951957
1.9812704895791133
1.9836410440159493
1.9812714072248423
1.9823342608935151
1.9812705931096817
1.9815930249964546
1.9812701718443182
1.9813369759889967
1.9812700899574311
1.9812799301584278
1.9812700807676422
1.9812711601524089
1.9812700800459875
1.981270259722447
1.9812700800459875
1.9812711601524089
1.9812700807676422
1.9812799301584278
1.9812700899574311
1.9813369759889967
1.9812701718443182
1.9815930249964546
1.9812705931096817
1.9823342608935151
1.9812714072248423
1.9836410440159493
1.9812704895791133
1.9851850173951957
1.98126535456643
1.9875683491468141
1.9916880880284091
1.9926459687666789
1.9916916729788208
1.9923978356958063
1.9916926234880885
1.9920750636791091
1.9916923029882272
1.9918233736862132
1.99169211027306
1.9917213396728999
1.9916920722226543
1.991696575468245
1.9916920679210648
1.9916925759728372
1.9916920675843723
1.9916921536364955
1.9916920675843723
1.9916925759728372
1.9916920679210648
1.991696575468245
1.9916920722226543
1.9917213396728999
1.99169211027306
1.9918233736862132
1.9916923029882272
1.9920750636791091
1.9916926234880885
1.9923978356958063
1.9916916729788208
1.9926459687666789
1.9916880880284091
1.993307149075715
1.9928216808777721
1.9950642935054423
1.9928231991263377
1.9940502344088951
1.9928235136509485
1.9933124655981824
1.9928233448445603
1.9929572600282903
1.9928232644644996
1.9928488327876501
1.9928232504538728
1.9928267793944465
1.9928232490190989
1.9928236161104458
1.9928232489147948
1.9928233074393207
1.9928232489147948
1.9928236161104458
1.9928232490190989
1.9928267793944465
1.9928232504538728
1.9928488327876501
1.9928232644644996
1.9929572600282903
1.9928233448445603
1.9933124655981824
1.9928235136509485
1.9940502344088951
1.9928231991263377
1.9950642935054423
1.9928216808777721
1.9964063974185799
2.0007441080419395
1.9985824106497325
2.0007489606689779
1.9992912326286649
2.0007502875175032
2.0000977987690773
2.0007496978071986
2.000566729910358
2.0007493694752374
2.0007155843726436
2.0007493064023101
2.0007449440095386
2.0007492993039007
2.0007488837777778
2.0007492987416637
2.0007492388435688
2.0007492987416637
2.0007488837777778
2.0007492993039007
2.0007449440095386
2.0007493064023101
2.0007155843726436
2.0007493694752374
2.000566729910358
2.0007496978071986
2.0000977987690773
2.0007502875175032
1.9992912326286649
2.0007489606689779
1.9985824106497325
2.0007441080419395
1.9980732653366724
1.9973732782773401
1.9983529825125468
1.9973735940344837
1.9978753379258503
1.9973736474103694
1.9975648700774862
1.9973736334447079
1.9974251797819875
1.9973736317718795
1.9973834795447702
1.9973736325599691
1.9973750019104057
1.9973736327701981
1.9973737765429407
1.9973736327956124
1.9973736559096189
1.9973736327956124
1.9973737765429407
1.9973736327701981
1.9973750019104057
1.9973736325599691
1.9973834795447702
1.9973736317718795
1.9974251797819875
1.9973736334447079
1.9975648700774862
1.9973736474103694
1.9978753379258503
1.9973735940344837
1.9983529825125468
1.9973732782773401
1.9989677689632452
2.0045476431903708
2.0007804725211296
2.0045607980911777
2.0018203644741619
2.0045624740199139
2.0030680253082078
2.0045598268536589
2.0040433627830976
2.0045583712018891
2.0044429722767934
2.0045580628732016
2.0045403572979952
2.0045580256697617
2.0045560460258822
2.004558022570865
2.0045576916534746
2.004558022570865
2.0045560460258822
2.0045580256697617
2.0045403572979952
2.0045580628732016
2.0044429722767934
2.0045583712018891
2.0040433627830976
2.0045598268536589
2.0030680253082078
2.0045624740199139
2.0018203644741619
2.0045607980911777
2.0007804725211296
2.0045476431903708
1.9994472213630763
1.9991718706707973
1.9995107908367304
1.9991717874535213
1.9993361737376036
1.9991717936254836
1.9992339746072822
1.9991718181314346
1.9991900299234389
1.9991718360534494
1.9991758275035414
1.9991718415293604
1.9991724872947312
1.9991718424415614
1.9991719209666279
1.999171842539663
1.9991718569255781
1.999171842539663
1.9991719209666279
1.9991718424415614
1.9991724872947312
1.9991718415293604
1.9991758275035414
1.9991718360534494
1.9991900299234389
1.9991718181314346
1.9992339746072822
1.9991717936254836
1.9993361737376036
1.9991717874535213
1.9995107908367304
1.9991718706707973
1.999704042886487
2.0073167953058579
2.0025289075728776
2.0073442195383056
2.0041149734290684
2.0073403389410558
2.0054924019337421
2.0073341076625679
2.0066202580807593
2.0073309903716137
2.0071510861200501
2.0073302628632663
2.0072993257716423
2.0073301651432081
2.00732631819875
2.0073301562424697
2.0073294487805549
2.0073301562424697
2.00732631819875
2.0073301651432081
2.0072993257716423
2.0073302628632663
2.0071510861200501
2.0073309903716137
2.0066202580807593
2.0073341076625679
2.0054924019337421
2.0073403389410558
2.0041149734290684
2.0073442195383056
2.0025289075728776
2.0073167953058579
1.9998415637808975
1.9999151889582765
1.9999151889582765
1.9999151889582765
1.9999151889582765
1.9999151889582765
1.9999151889582765
1.9999151889582765
1.9999151889582765
1.9999151889582765
1.9999151889582765
1.9999151889582765
1.9999151889582765
1.9999151889582765
1.9999151889582765
1.9999151889582765
1.9999151889582765
1.9999151889582765
1.9999151889582765
1.9999151889582765
1.9999151889582765
1.9999151889582765
1.9999151889582765
1.9999151889582765
1.9999151889582765
1.9999151889582765
1.9999151889582765
1.9999151889582765
1.9999151889582765
1.9999151889582765
1.9999151889582765
1.9999151889582765
1.9999151889582765
1.0027451566252341
1.0012243880784839
1.0027656214655827
1.0017287978907683
1.002765739116799
1.0019238782896498
1.002764504751561
1.0020565429291597
1.0027628610067882
1.0023255611013664
1.0027608514771285
1.0025810626114817
1.0027598247282392
1.0027075933438456
1.0027595493190338
1.0027389664504818
1.0027595493190338
1.0027075933438456
1.0027598247282392
1.0025810626114817
1.0027608514771285
1.0023255611013664
1.0027628610067882
1.0020565429291597
1.002764504751561
1.0019238782896498
1.002765739116799
1.0017287978907683
1.0027656214655827
1.0012243880784839
1.0027451566252341
1.0000453978687025
1.0000118064343106
1.000069237442728
1.0000116969064001
1.0000469220252286
1.0000116762777449
1.0000295137462496
1.0000116870888025
1.0000189918487183
1.0000116975696032
1.0000141798515487
1.0000117042657903
1.0000124176590668
1.0000117072111148
1.0000118817387298
1.0000117080205826
1.0000117729234557
1.0000117080205826
1.0000118817387298
1.0000117072111148
1.0000124176590668
1.0000117042657903
1.0000141798515487
1.0000116975696032
1.0000189918487183
1.0000116870888025
1.0000295137462496
1.0000116762777449
1.0000469220252286
1.0000116969064001
1.000069237442728
1.0000118064343106
1.0000848110417238
1.0018291114183748
1.0006228446598002
1.0018390170278491
1.0009327450991607
1.0018415175805442
1.0010581312622144
1.0018422115133467
1.0011736982008947
1.0018412191807966
1.0014480709428433
1.0018396824060798
1.0016892888620925
1.001838958651696
1.0017986242906372
1.0018387823099413
1.0018239654874788
1.0018387823099413
1.0017986242906372
1.001838958651696
1.0016892888620925
1.0018396824060798
1.0014480709428433
1.0018412191807966
1.0011736982008947
1.0018422115133467
1.0010581312622144
1.0018415175805442
1.0009327450991607
1.0018390170278491
1.0006228446598002
1.0018291114183748
1.0001584362191025
1.0001277172204168
1.0002533215049068
1.0001277489467315
1.000210032243078
1.0001277479708743
1.0001719721686468
1.0001277435612566
1.0001461840132264
1.0001277411579894
1.0001337070355436
1.0001277418972265
1.0001292644673305
1.0001277428128708
1.0001280587923305
1.0001277431182869
1.0001278439122969
1.0001277431182869
1.0001280587923305
1.0001277428128708
1.0001292644673305
1.0001277418972265
1.0001337070355436
1.0001277411579894
1.0001461840132264
1.0001277435612566
1.0001719721686468
1.0001277479708743
1.000210032243078
1.0001277489467315
1.0002533215049068
1.0001277172204168
1.0002959571135133
1.0015375172476482
1.0006881508638363
1.0015411775802459
1.000776859493298
1.0015434039199562
1.0007703407312911
1.0015444596593603
1.0009420537881359
1.0015437792301189
1.0012451574708778
1.0015429151068311
1.0014458864602358
1.0015425829397517
1.0015201410845362
1.0015425135974885
1.0015351953561575
1.0015425135974885
1.0015201410845362
1.0015425829397517
1.0014458864602358
1.0015429151068311
1.0012451574708778
1.0015437792301189
1.0009420537881359
1.0015444596593603
1.0007703407312911
1.0015434039199562
1.000776859493298
1.0015411775802459
1.0006881508638363
1.0015375172476482
1.0005527786369237
1.0007285608095837
1.0009624878745864
1.0007286281897645
1.000888180025167
1.0007286703003486
1.0008210158887842
1.0007286732622114
1.0007708745220698
1.0007286647094025
1.0007433138090771
1.0007286608186141
1.0007325035203443
1.0007286600411889
1.000729445674541
1.0007286599550713
1.000728901180342
1.0007286599550713
1.000729445674541
1.0007286600411889
1.0007325035203443
1.0007286608186141
1.0007433138090771
1.0007286647094025
1.0007708745220698
1.0007286732622114
1.0008210158887842
1.0007286703003486
1.000888180025167
1.0007286281897645
1.0009624878745864
1.0007285608095837
1.001032231036755
1.0028341440485489
1.0019899773271104
1.0028356237010529
1.0020377320163123
1.0028371916718217
1.0021674824386584
1.0028377816917309
1.0024456666239716
1.0028374595535092
1.0026861169696861
1.0028371630749238
1.0027971445548813
1.0028370696713116
1.0028293311280265
1.0028370526268415
1.0028348743733353
1.0028370526268415
1.0028293311280265
1.0028370696713116
1.0027971445548813
1.0028371630749238
1.0026861169696861
1.0028374595535092
1.0024456666239716
1.0028377816917309
1.0021674824386584
1.0028371916718217
1.0020377320163123
1.0028356237010529
1.0019899773271104
1.0028341440485489
1.0019267346633276
1.0031886934517658
1.0035284884721687
1.0031888389297461
1.0034398563003315
1.0031889516955048
1.0033530942403881
1.0031889699437806
1.00327364939011
1.0031889480181448
1.0032211223712555
1.0031889343313733
1.0031978907745607
1.0031889306086283
1.0031908331538459
1.0031889299896726
1.0031895278622704
1.0031889299896726
1.0031908331538459
1.0031889306086283
1.0031978907745607
1.0031889343313733
1.0032211223712555
1.0031889480181448
1.00327364939011
1.0031889699437806
1.0033530942403881
1.0031889516955048
1.0034398563003315
1.0031888389297461
1.0035284884721687
1.0031886934517658
1.0035936025814203
1.0076300102011035
1.0069178107154759
1.0076308165146242
1.0071093599439642
1.0076316623169421
1.0073400732608602
1.0076319035736228
1.0075264899158947
1.0076318059879432
1.0076094293557356
1.0076317287673893
1.0076297002659209
1.0076317066557414
1.007632006992025
1.0076317028531918
1.0076319669751548
1.0076317028531918
1.007632006992025
1.0076317066557414
1.0076297002659209
1.0076317287673893
1.0076094293557356
1.0076318059879432
1.0075264899158947
1.0076319035736228
1.0073400732608602
1.0076316623169421
1.0071093599439642
1.0076308165146242
1.0069178107154759
1.0076300102011035
1.006692850924285
1.0120078852297352
1.0124251840270373
1.0120082226216738
1.0123371538641153
1.0120084474210156
1.0122490086197256
1.0120084795004483
1.0121473836768684
1.012008415189604
1.0120660008027897
1.0120083720077642
1.0120254506089912
1.0120083593181552
1.0120121638307418
1.0120083570767575
1.012009593524998
1.0120083570767575
1.0120121638307418
1.0120083593181552
1.0120254506089912
1.0120083720077642
1.0120660008027897
1.012008415189604
1.0121473836768684
1.0120084795004483
1.0122490086197256
1.0120084474210156
1.0123371538641153
1.0120082226216738
1.0124251840270373
1.0120078852297352
1.0124316508531859
1.0234725655768897
1.0232793437376069
1.0234732520508016
1.0234272215748104
1.0234737226172821
1.0235495094332336
1.023473812093489
1.0235697691316399
1.0234737118596791
1.0235273944968015
1.0234736387612449
1.0234920901063627
1.0234736164551095
1.0234780875237461
1.0234736124112982
1.0234751374319397
1.0234736124112982
1.0234780875237461
1.0234736164551095
1.0234920901063627
1.0234736387612449
1.0235273944968015
1.0234737118596791
1.0235697691316399
1.023473812093489
1.0235495094332336
1.0234737226172821
1.0234272215748104
1.0234732520508016
1.0232793437376069
1.0234725655768897
1.0229773699100257
1.0417249047790462
1.0422172838460093
1.0417257540100757
1.0421045467240604
1.0417260895278759
1.0420232589323823
1.0417260973361395
1.0419151835059182
1.0417259413650375
1.041810511053771
1.0417258361629997
1.0417522511324377
1.04172580385326
1.0417318982307742
1.0417257979311638
1.0417278222441011
1.0417257979311638
1.0417318982307742
1.04172580385326
1.0417522511324377
1.0417258361629997
1.041810511053771
1.0417259413650375
1.0419151835059182
1.0417260973361395
1.0420232589323823
1.0417260895278759
1.0421045467240604
1.0417257540100757
1.0422172838460093
1.0417249047790462
1.0420877279156189
1.0758876312090191
1.076204263883805
1.0758890299702866
1.0761607978789347
1.0758893819274982
1.0761546695399791
1.0758893466593449
1.0760835037013226
1.0758891258604515
1.0759820308729597
1.0758889786673613
1.0759189155179203
1.0758889330072678
1.075895931623893
1.0758889245700498
1.0758912573857329
1.0758889245700498
1.075895931623893
1.0758889330072678
1.0759189155179203
1.0758889786673613
1.0759820308729597
1.0758891258604515
1.0760835037013226
1.0758893466593449
1.0761546695399791
1.0758893819274982
1.0761607978789347
1.0758890299702866
1.076204263883805
1.0758876312090191
1.0758581800212434
1.1325743018020931
1.133210202917994
1.1325765414777402
1.132996111234585
1.1325767242226283
1.1329102361539725
1.1325765717470548
1.1328033560867736
1.1325762654328353
1.1326820978718184
1.1325760715570985
1.1326096521026283
1.1325760120917905
1.1325837362211353
1.1325760011819288
1.1325785333796241
1.1325760011819288
1.1325837362211353
1.1325760120917905
1.1326096521026283
1.1325760715570985
1.1326820978718184
1.1325762654328353
1.1328033560867736
1.1325765717470548
1.1329102361539725
1.1325767242226283
1.132996111234585
1.1325765414777402
1.133210202917994
1.1325743018020931
1.1329642401978293
1.222079054879428
1.2227070566693174
1.2220821646317037
1.2224744045000997
1.2220820340445706
1.2224138352004501
1.2220817540092388
1.2223192943127927
1.2220813669996284
1.2221935758723641
1.2220811313345681
1.2221163718988066
1.222081060581633
1.2220889810187032
1.2220810478672668
1.2220835741998299
1.2220810478672668
1.2220889810187032
1.222081060581633
1.2221163718988066
1.2220811313345681
1.2221935758723641
1.2220813669996284
1.2223192943127927
1.2220817540092388
1.2224138352004501
1.2220820340445706
1.2224744045000997
1.2220821646317037
1.2227070566693174
1.222079054879428
1.2227001388253087
1.3469785281449358
1.3476144036602542
1.346981931813712
1.3473697198579988
1.346981432282403
1.3473233146704744
1.3469810542153002
1.3472297895163319
1.3469806076854023
1.34709624355442
1.3469803460983258
1.3470155022451447
1.3469802704176663
1.3469878359490819
1.3469802573050695
1.3469825623487293
1.3469802573050695
1.3469878359490819
1.3469802704176663
1.3470155022451447
1.3469803460983258
1.34709624355442
1.3469806076854023
1.3472297895163319
1.3469810542153002
1.3473233146704744
1.346981432282403
1.3473697198579988
1.346981931813712
1.3476144036602542
1.3469785281449358
1.3486451353339457
1.4967650028438007
1.4972362111265221
1.4967679518561066
1.4971010063585506
1.4967672828057472
1.4971037042634507
1.4967669037031532
1.4970173620385434
1.4967664495588966
1.4968794876911609
1.4967661917695134
1.4967988502789167
1.4967661209328467
1.4967727141015041
1.4967661093169673
1.4967679907849454
1.4967661093169673
1.4967727141015041
1.4967661209328467
1.4967988502789167
1.4967661917695134
1.4968794876911609
1.4967664495588966
1.4970173620385434
1.4967669037031532
1.4971037042634507
1.4967672828057472
1.4971010063585506
1.4967679518561066
1.4972362111265221
1.4967650028438007
1.5
1.6468059804811921
1.647146872818229
1.6468079334308929
1.6471049955161627
1.6468076457048013
1.6471426591985743
1.646807425394099