# vtk DataFile Version 3.0
Euler density step 366
ASCII
DATASET STRUCTURED_POINTS
DIMENSIONS 32 32 32
ORIGIN 0 0 0
SPACING 0.3125 0.3125 0.3125
POINT_DATA 32768
SCALARS density double 1
LOOKUP_TABLE default
1.0071869218940546
1.0020340065019533
1.0072042964860326
1.004095369524785
1.0072070635068371
1.0056831494451588
1.007203789653593
1.006681950181179
1.007201661923655
1.007080205266025
1.0072011466305921
1.0071813381868084
1.0072010771100592
1.0071987072101256
1.0072010708636869
1.0072006483765445
1.0072010708636869
1.0071987072101256
1.0072010771100592
1.0071813381868084
1.0072011466305921
1.007080205266025
1.007201661923655
1.006681950181179
1.007203789653593
1.0056831494451588
1.0072070635068371
1.004095369524785
1.0072042964860326
1.0020340065019533
1.0071869218940546
1.0000453978687025
1.0000582481510167
1.0000778537518256
1.0000582040371926
1.000068077670315
1.0000581927632115
1.0000622531195982
1.0000581974588167
1.0000595083430157
1.0000582014766424
1.0000585120690864
1.0000582026146094
1.0000582557424389
1.0000582027905736
1.0000582095137649
1.0000582028079672
1.000058204073262
1.0000582028079672
1.0000582095137649
1.0000582027905736
1.0000582557424389
1.0000582026146094
1.0000585120690864
1.0000582014766424
1.0000595083430157
1.0000581974588167
1.0000622531195982
1.0000581927632115
1.000068077670315
1.0000582040371926
1.0000778537518256
1.0000582481510167
1.0000848110417238
1.0065319694121293
1.0022057323213762
1.006541401907002
1.0039111776487704
1.0065441921856464
1.0053412218584672
1.0065426303617684
1.006172625571274
1.0065416216084453
1.0064647959426041
1.0065414057175588
1.0065301867223382
1.0065413799759104
1.0065401724404275
1.0065413779104908
1.006541182705879
1.0065413779104908
1.0065401724404275
1.0065413799759104
1.0065301867223382
1.0065414057175588
1.0064647959426041
1.0065416216084453
1.006172625571274
1.0065426303617684
1.0053412218584672
1.0065441921856464
1.0039111776487704
1.006541401907002
1.0022057323213762
1.0065319694121293
1.0001584362191025
1.0002204795014724
1.0002657480501125
1.000220482028719
1.0002415528721336
1.000220475661062
1.0002280115680569
1.0002204747229531
1.0002224900664114
1.0002204754709398
1.0002208712782026
1.0002204757397655
1.0002205331505527
1.000220475780345
1.0002204820877323
1.0002204757839579
1.0002204768406704
1.0002204757839579
1.0002204820877323
1.000220475780345
1.0002205331505527
1.0002204757397655
1.0002208712782026
1.0002204754709398
1.0002224900664114
1.0002204747229531
1.0002280115680569
1.000220475661062
1.0002415528721336
1.000220482028719
1.0002657480501125
1.0002204795014724
1.0002959571135133
1.0051355547550902
1.002082155780865
1.0051393442154417
1.00347153467419
1.0051406509942158
1.0045000378020543
1.0051402777947056
1.0049756857300052
1.0051400461958915
1.0051110384100785
1.0051400028662436
1.0051363454826134
1.0051399982692315
1.0051396540764956
1.0051399979388502
1.0051399486748238
1.0051399979388502
1.0051396540764956
1.0051399982692315
1.0051363454826134
1.0051400028662436
1.0051110384100785
1.0051400461958915
1.0049756857300052
1.0051402777947056
1.0045000378020543
1.0051406509942158
1.00347153467419
1.0051393442154417
1.002082155780865
1.0051355547550902
1.0005527786369237
1.0008141278333975
1.0009462346542084
1.0008141475818768
1.0008760445348042
1.0008141506308896
1.0008355826985689
1.0008141494354803
1.0008194842782137
1.0008141490573608
1.0008151114921762
1.0008141490122313
1.0008142779719604
1.0008141490088753
1.0008141622710094
1.0008141490086495
1.0008141511241653
1.0008141490086495
1.0008141622710094
1.0008141490088753
1.0008142779719604
1.0008141490122313
1.0008151114921762
1.0008141490573608
1.0008194842782137
1.0008141494354803
1.0008355826985689
1.0008141506308896
1.0008760445348042
1.0008141475818768
1.0009462346542084
1.0008141278333975
1.001032231036755
1.0040851676075995
1.0027764256940996
1.004086215950081
1.0034868530417667
1.004086576765221
1.0039009203727511
1.0040865433295068
1.0040480963710834
1.0040865155847274
1.0040810254968413
1.0040865106895955
1.0040859511477438
1.0040865102083461
1.0040864683988007
1.0040865101771725
1.0040865055904824
1.0040865101771725
1.0040864683988007
1.0040865102083461
1.0040859511477438
1.0040865106895955
1.0040810254968413
1.0040865155847274
1.0040480963710834
1.0040865433295068
1.0039009203727511
1.004086576765221
1.0034868530417667
1.004086215950081
1.0027764256940996
1.0040851676075995
1.0019267346633276
1.0030383270336394
1.0033862017315709
1.0030383886195997
1.0032069911905566
1.0030384059981126
1.0030983042237789
1.0030384024350418
1.0030535454813259
1.0030384003889534
1.0030411588611878
1.0030384000324399
1.0030387723142895
1.0030383999961892
1.0030384385261242
1.0030383999935912
1.0030384061769191
1.0030383999935912
1.0030384385261242
1.0030383999961892
1.0030387723142895
1.0030384000324399
1.0030411588611878
1.0030384003889534
1.0030535454813259
1.0030384024350418
1.0030983042237789
1.0030384059981126
1.0032069911905566
1.0030383886195997
1.0033862017315709
1.0030383270336394
1.0035936025814203
1.0067429690991148
1.0067899449182052
1.0067432585851204
1.0068155787329007
1.0067433507475867
1.006787841872913
1.0067433445546004
1.006758525024277
1.0067433382880626
1.0067466385416426
1.006743337129544
1.0067438347051911
1.0067433370112686
1.00674339241494
1.0067433370031225
1.0067433463404796
1.0067433370031225
1.00674339241494
1.0067433370112686
1.0067438347051911
1.006743337129544
1.0067466385416426
1.0067433382880626
1.006758525024277
1.0067433445546004
1.006787841872913
1.0067433507475867
1.0068155787329007
1.0067432585851204
1.0067899449182052
1.0067429690991148
1.006692850924285
1.0112849830705937
1.0120341895585161
1.0112852350277071
1.0116635988492582
1.0112853005193709
1.0114257225777301
1.0112852772410561
1.0113221078888066
1.0112852653882123
1.0112921681592586
1.0112852633032936
1.0112862151411637
1.0112852630874571
1.011285363218724
1.0112852630716924
1.0112852793373277
1.0112852630716924
1.011285363218724
1.0112852630874571
1.0112862151411637
1.0112852633032936
1.0112921681592586
1.0112852653882123
1.0113221078888066
1.0112852772410561
1.0114257225777301
1.0112853005193709
1.0116635988492582
1.0112852350277071
1.0120341895585161
1.0112849830705937
1.0124316508531859
1.0216303799881676
1.0225661661328282
1.0216308733456765
1.0221296269240776
1.0216309905205443
1.0218250814998684
1.021630937794205
1.0216835577939389
1.0216309120602824
1.021640988110762
1.0216309075177061
1.0216323160609497
1.021630907044208
1.0216310565087536
1.0216309070093497
1.0216309314172827
1.0216309070093497
1.0216310565087536
1.021630907044208
1.0216323160609497
1.0216309075177061
1.021640988110762
1.0216309120602824
1.0216835577939389
1.021630937794205
1.0218250814998684
1.0216309905205443
1.0221296269240776
1.0216308733456765
1.0225661661328282
1.0216303799881676
1.0229773699100257
1.0400763131357715
1.0414568583072272
1.0400771997533094
1.040797363121809
1.0400773692496181
1.0403549855259602
1.0400772515759369
1.0401522897629922
1.0400771989089173
1.0400915492882497
1.0400771897380621
1.0400791927270896
1.0400771887839433
1.0400774008190046
1.0400771887134423
1.0400772232301136
1.0400771887134423
1.0400774008190046
1.0400771887839433
1.0400791927270896
1.0400771897380621
1.0400915492882497
1.0400771989089173
1.0401522897629922
1.0400772515759369
1.0403549855259602
1.0400773692496181
1.040797363121809
1.0400771997533094
1.0414568583072272
1.0400763131357715
1.0420877279156189
1.0733285931408063
1.0751133131587238
1.0733301733781673
1.074270597277688
1.0733303906402987
1.0736975360800718
1.0733301526111201
1.0734300897051106
1.0733300535086849
1.0733491827927975
1.0733300365467973
1.0733326966127861
1.0733300347952708
1.073330314403341
1.0733300346662238
1.0733300797727803
1.0733300346662238
1.073330314403341
1.0733300347952708
1.0733326966127861
1.0733300365467973
1.0733491827927975
1.0733300535086849
1.0734300897051106
1.0733301526111201
1.0736975360800718
1.0733303906402987
1.074270597277688
1.0733301733781673
1.0751133131587238
1.0733285931408063
1.0758581800212434
1.1297382804463307
1.1320351069996544
1.129741010062048
1.1309467300804863
1.1297412043724064
1.1302125582587725
1.1297407532979735
1.1298685642138435
1.129740580541081
1.1297647974566263
1.1297405518451082
1.1297438687855528
1.1297405489358416
1.1297408910631219
1.1297405487242029
1.1297406027752759
1.1297405487242029
1.1297408910631219
1.1297405489358416
1.1297438687855528
1.1297405518451082
1.1297647974566263
1.129740580541081
1.1298685642138435
1.1297407532979735
1.1302125582587725
1.1297412043724064
1.1309467300804863
1.129741010062048
1.1320351069996544
1.1297382804463307
1.1329642401978293
1.2186276116602681
1.2214906499991618
1.2186320719141819
1.2201311223684057
1.2186320642723971
1.219216864488865
1.2186312707295341
1.2187878916439054
1.2186309936398245
1.2186600305490107
1.2186309496400465
1.2186348151328155
1.2186309453237305
1.2186313308837475
1.2186309450179189
1.2186310037667529
1.2186309450179189
1.2186313308837475
1.2186309453237305
1.2186348151328155
1.2186309496400465
1.2186600305490107
1.2186309936398245
1.2187878916439054
1.2186312707295341
1.219216864488865
1.2186320642723971
1.2201311223684057
1.2186320719141819
1.2214906499991618
1.2186276116602681
1.2227001388253087
1.3434235447889409
1.3468638154652359
1.343430178033028
1.3452338624689375
1.3434296599319131
1.3441290664419629
1.3434283863975796
1.3436116621962086
1.3434279833368703
1.3434608167496678
1.3434279230341926
1.3434321093643116
1.3434279173953156
1.3434283145602641
1.3434279170120822
1.3434279743503674
1.3434279170120822
1.3434283145602641
1.3434279173953156
1.3434321093643116
1.3434279230341926
1.3434608167496678
1.3434279833368703
1.3436116621962086
1.3434283863975796
1.3441290664419629
1.3434296599319131
1.3452338624689375
1.343430178033028
1.3468638154652359
1.3434235447889409
1.3486451353339457
1.4932886251398043
1.4972068228048732
1.4932974255787992
1.4953722420910553
1.4932960601794085
1.4940935193961433
1.4932942418656714
1.4934967233021992
1.4932937220209186
1.4933283048484782
1.4932936499059064
1.4932978080336274
1.493293643601225
1.4932940126133591
1.4932936431989998
1.493293692825056
1.4932936431989998
1.4932940126133591
1.493293643601225
1.4932978080336274
1.4932936499059064
1.4933283048484782
1.4932937220209186
1.4934967233021992
1.4932942418656714
1.4940935193961433
1.4932960601794085
1.4953722420910553
1.4932974255787992
1.4972068228048732
1.4932886251398043
1.5
1.6431466887485577
1.6473711230908825
1.6431569187121193
1.6454245408747523
1.643154738131732
1.6440092031558258
1.6431525412393511
1.6433594790786443
1.6431519757994713
1.6431851592707829
1.6431519043346481
1.6431556169973445
1.6431518985998759
1.6431522034213724
1.6431518982622011
1.6431519361081171
1.6431518982622011
1.6431522034213724
1.6431518985998759
1.6431556169973445
1.6431519043346481
1.6431851592707829
1.6431519757994713
1.6433594790786443
1.6431525412393511
1.6440092031558258
1.643154738131732
1.6454245408747523
1.6431569187121193
1.6473711230908825
1.6431466887485577
1.6513548646660543
1.7682602124635711
1.7726217375398847
1.7682704167719654
1.7706088167206591
1.7682680284549666
1.7691116705982126
1.7682658827905817
1.7684573409724025
1.7682653844014706
1.7682939131855628
1.7682653272767637
1.7682682837398831
1.7682653230771155
1.768265547530685
1.7682653228487046
1.7682653486271454
1.7682653228487046
1.768265547530685
1.7682653230771155
1.7682682837398831
1.7682653272767637
1.7682939131855628
1.7682653844014706
1.7684573409724025
1.7682658827905817
1.7691116705982126
1.7682680284549666
1.7706088167206591
1.7682704167719654
1.7726217375398847
1.7682602124635711
1.7772998611746911
1.8581225912377071
1.8624361338047348
1.8581313751764397
1.860369073178521
1.8581294259094416
1.8588848076700171
1.8581277348155145
1.8582868696373529
1.8581273771199316
1.8581493996027607
1.8581273396294506
1.8581294635787426
1.8581273370798952
1.8581274873904845
1.8581273369505813
1.858127353076084
1.8581273369505813
1.8581274873904845
1.8581273370798952
1.8581294635787426
1.8581273396294506
1.8581493996027607
1.8581273771199316
1.8582868696373529
1.8581277348155145
1.8588848076700171
1.8581294259094416
1.860369073178521
1.8581313751764397
1.8624361338047348
1.8581225912377071
1.8670357598021707
1.916157204443776
1.9201411587353936
1.9161637574029788
1.9181164739764633
1.9161624980550707
1.9167737923476666
1.9161613992056203
1.9162811510383775
1.9161611847853277
1.9161766899367614
1.9161611639516716
1.9161625703373022
1.9161611626237989
1.9161612565668489
1.9161611625602497
1.9161611721023986
1.9161611625602497
1.9161612565668489
1.9161611626237989
1.9161625703373022
1.9161611639516716
1.9161766899367614
1.9161611847853277
1.9162811510383775
1.9161613992056203
1.9167737923476666
1.9161624980550707
1.9181164739764633
1.9161637574029788
1.9201411587353936
1.916157204443776
1.9241418199787566
1.951249093871309
1.9546473392062076
1.9512533608011546
1.9528079599569441
1.9512526923589915
1.9517045897396801
1.9512520863968921
1.951335047794287
1.9512519757430487
1.9512621332318802
1.9512519656309515
1.9512528427265567
1.9512519650190046
1.9512520210523745
1.951251964991058
1.9512519704542297
1.951251964991058
1.9512520210523745
1.9512519650190046
1.9512528427265567
1.9512519656309515
1.9512621332318802
1.9512519757430487
1.951335047794287
1.9512520863968921
1.9517045897396801
1.9512526923589915
1.9528079599569441
1.9512533608011546
1.9546473392062076
1.951249093871309
1.9579122720843811
1.9720873230506222
1.9746470696351162
1.972089761680607
1.9732033751635243
1.9720894713487245
1.9723955142192064
1.9720891819818305
1.9721426519442886
1.9720891316195484
1.9720954081408901
1.9720891272241365
1.972089649899943
1.9720891269684737
1.972089159308966
1.9720891269572189
1.9720891300215264
1.9720891269572189
1.972089159308966
1.9720891269684737
1.972089649899943
1.9720891272241365
1.9720954081408901
1.9720891316195484
1.9721426519442886
1.9720891819818305
1.9723955142192064
1.9720894713487245
1.9732033751635243
1.972089761680607
1.9746470696351162
1.9720873230506222
1.9770226300899743
1.9838335585611242
1.9857431566926449
1.9838348151661602
1.9846067223764685
1.9838347019985911
1.9840338867353542
1.9838345767923766
1.9838677474929685
1.9838345559241564
1.9838383087572062
1.9838345541724554
1.9838348576646327
1.9838345540738134
1.9838345724034065
1.9838345540695954
1.9838345557711581
1.9838345540695954
1.9838345724034065
1.9838345540738134
1.9838348576646327
1.9838345541724554
1.9838383087572062
1.9838345559241564
1.9838677474929685
1.9838345767923766
1.9840338867353542
1.9838347019985911
1.9846067223764685
1.9838348151661602
1.9857431566926449
1.9838335585611242
1.9875683491468141
1.9918815126038687
1.9926445665451333
1.9918821993404967
1.9922261244591322
1.9918821914841811
1.9919775150027708
1.9918821447882462
1.9918986733082276
1.9918821366498423
1.9918840487437623
1.9918821359568049
1.9918822924683102
1.9918821359177705
1.9918821454291742
1.9918821359161263
1.9918821368014126
1.9918821359161263
1.9918821454291742
1.9918821359177705
1.9918822924683102
1.9918821359568049
1.9918840487437623
1.9918821366498423
1.9918986733082276
1.9918821447882462
1.9919775150027708
1.9918821914841811
1.9922261244591322
1.9918821993404967
1.9926445665451333
1.9918815126038687
1.993307149075715
1.994757504472098
1.9955838121741318
1.9947577525306783
1.9950643830945916
1.9947577418243445
1.9948310370537337
1.9947577241350729
1.9947692253968374
1.9947577213532235
1.9947589646811721
1.9947577211330292
1.9947578181813368
1.9947577211212537
1.9947577268187697
1.9947577211207717
1.9947577216376016
1.9947577211207717
1.9947577268187697
1.9947577211212537
1.9947578181813368
1.9947577211330292
1.9947589646811721
1.9947577213532235
1.9947692253968374
1.9947577241350729
1.9948310370537337
1.9947577418243445
1.9950643830945916
1.9947577525306783
1.9955838121741318
1.994757504472098
1.9964063974185799
2.0004015098442243
1.9990684621357999
2.0004027302898604
1.9999258108326852
2.0004027563166136
2.0003014919456099
2.0004026825966204
2.0003891999538457
2.000402669436212
2.0004014648426973
2.0004026682791469
2.0004025920311665
2.0004026682113856
2.000402664649314
2.0004026682084395
2.0004026679566458
2.0004026682084395
2.000402664649314
2.0004026682113856
2.0004025920311665
2.0004026682791469
2.0004014648426973
2.000402669436212
2.0003891999538457
2.0004026825966204
2.0003014919456099
2.0004027563166136
1.9999258108326852
2.0004027302898604
1.9990684621357999
2.0004015098442243
1.9980732653366724
1.9983759503436722
1.9986770177894044
1.9983759784687181
1.9984873846893603
1.9983759785842836
1.9984027466726926
1.9983759791788263
1.9983802046252419
1.9983759794835605
1.9983764379731308
1.9983759795278626
1.9983760153529637
1.9983759795313789
1.9983759816319133
1.9983759795315654
1.9983759797215119
1.9983759795315654
1.9983759816319133
1.9983759795313789
1.9983760153529637
1.9983759795278626
1.9983764379731308
1.9983759794835605
1.9983802046252419
1.9983759791788263
1.9984027466726926
1.9983759785842836
1.9984873846893603
1.9983759784687181
1.9986770177894044
1.9983759503436722
1.9989677689632452
2.0047974228024668
2.0013966322429533
2.0048028173804244
2.00324139259458
2.0048021849584923
2.0043709775930849
2.0048014954657751
2.0047281841722078
2.0048013735701611
2.0047931356924957
2.0048013627260661
2.0048007113059367
2.0048013620805718
2.0048013239680849
2.0048013620516456
2.0048013586439648
2.0048013620516456
2.0048013239680849
2.0048013620805718
2.0048007113059367
2.0048013627260661
2.0047931356924957
2.0048013735701611
2.0047281841722078
2.0048014954657751
2.0043709775930849
2.0048021849584923
2.00324139259458
2.0048028173804244
2.0013966322429533
2.0047974228024668
1.9994472213630763
1.9995502976783222
1.9996393650717423
1.9995502614706004
1.9995875188122465
1.9995502688410851
1.9995611008460847
1.9995502783750496
1.9995523546337732
1.9995502807468253
1.9995505479057749
1.999550281033583
1.9995503051405765
1.9995502810551951
1.9995502826511629
1.9995502810563479
1.9995502812161632
1.9995502810563479
1.9995502826511629
1.9995502810551951
1.9995503051405765
1.999550281033583
1.9995505479057749
1.9995502807468253
1.9995523546337732
1.9995502783750496
1.9995611008460847
1.9995502688410851
1.9995875188122465
1.9995502614706004
1.9996393650717423
1.9995502976783222
1.999704042886487
2.0070048441231449
2.0027210464876566
2.0070178210264231
2.0047935290715126
2.0070135888437521
2.0062771143938933
2.0070110399375709
2.0068622496151693
2.0070105573618204
2.0069910793221806
2.0070105101015825
2.0070087470535993
2.0070105070669002
2.0070103906128995
2.0070105069221356
2.0070104953095789
2.0070105069221356
2.0070103906128995
2.0070105070669002
2.0070087470535993
2.0070105101015825
2.0069910793221806
2.0070105573618204
2.0068622496151693
2.0070110399375709
2.0062771143938933
2.0070135888437521
2.0047935290715126
2.0070178210264231
2.0027210464876566
2.0070048441231449
1.9998415637808975
1.9999151889582765
1.9999151889582765
1.9999151889582765
1.9999151889582765
1.9999151889582765
1.9999151889582765
1.9999151889582765
1.9999151889582765
1.9999151889582765
1.9999151889582765
1.9999151889582765
1.9999151889582765
1.9999151889582765
1.9999151889582765
1.9999151889582765
1.9999151889582765
1.9999151889582765
1.9999151889582765
1.9999151889582765
1.9999151889582765
1.9999151889582765
1.9999151889582765
1.9999151889582765
1.9999151889582765
1.9999151889582765
1.9999151889582765
1.9999151889582765
1.9999151889582765
1.9999151889582765
1.9999151889582765
1.9999151889582765
1.9999151889582765
1.0038318248568439
1.0018781091312217
1.0038455296023492
1.0025224074749834
1.003845647022807
1.0029799867975304
1.0038432907935557
1.0034513288031492
1.0038414332209415
1.0037271168151278
1.0038408492373709
1.0038184045201388
1.0038407490924723
1.0038375882775905
1.0038407378732732
1.0038400865730963
1.0038407378732732
1.0038375882775905
1.0038407490924723
1.0038184045201388
1.0038408492373709
1.0037271168151278
1.0038414332209415
1.0034513288031492
1.0038432907935557
1.0029799867975304
1.003845647022807
1.0025224074749834
1.0038455296023492
1.0018781091312217
1.0038318248568439
1.0000453978687025
1.0000680253591425
1.0000816964748598
1.0000679874300842
1.0000750319398657
1.0000679801679306
1.0000706797239087
1.000067984552121
1.0000688269278144
1.0000679880571477
1.0000682011328073
1.0000679892039817
1.0000680307822685
1.0000679894176356
1.0000679956017635
1.0000679894435487
1.0000679908141272
1.0000679894435487
1.0000679956017635
1.0000679894176356
1.0000680307822685
1.0000679892039817
1.0000682011328073
1.0000679880571477
1.0000688269278144
1.000067984552121
1.0000706797239087
1.0000679801679306
1.0000750319398657
1.0000679874300842
1.0000816964748598
1.0000680253591425
1.0000848110417238
1.0023728841811177
1.0007828165664252
1.0023795144614269
1.0011500413698158
1.0023814273983471
1.0016047170491198
1.0023803297152056
1.0020674394504365
1.0023793234858338
1.0022988791012966
1.0023790403275483
1.0023650017787855
1.0023789972537558
1.0023772245918803
1.0023789928971403
1.0023786613602372
1.0023789928971403
1.0023772245918803
1.0023789972537558
1.0023650017787855
1.0023790403275483
1.0022988791012966
1.0023793234858338
1.0020674394504365
1.0023803297152056
1.0016047170491198
1.0023814273983471
1.0011500413698158
1.0023795144614269
1.0007828165664252
1.0023728841811177
1.0001584362191025
1.0002486870353136
1.0002792045930231
1.000248702503485
1.0002630526414478
1.0002486982992871
1.0002537237977793
1.0002486953112912
1.0002500713149494
1.0002486950183456
1.0002489911901935
1.0002486951233565
1.0002487443158483
1.0002486951563925
1.000248701471101
1.0002486951610203
1.0002486963973662
1.0002486951610203
1.000248701471101
1.0002486951563925
1.0002487443158483
1.0002486951233565
1.0002489911901935
1.0002486950183456
1.0002500713149494
1.0002486953112912
1.0002537237977793
1.0002486982992871
1.0002630526414478
1.000248702503485
1.0002792045930231
1.0002486870353136
1.0002959571135133
1.0024472494398144
1.000976734618626
1.0024499166356344
1.0014087638155884
1.0024510441187631
1.0019296699669493
1.0024507097816175
1.0022835407080306
1.0024504178927196
1.0024149549270127
1.002450347431173
1.0024450827925138
1.0024503379369782
1.0024497604374785
1.0024503370616753
1.0024502413762713
1.0024503370616753
1.0024497604374785
1.0024503379369782
1.0024450827925138
1.002450347431173
1.0024149549270127
1.0024504178927196
1.0022835407080306
1.0024507097816175
1.0019296699669493
1.0024510441187631
1.0014087638155884
1.0024499166356344
1.000976734618626
1.0024472494398144
1.0005527786369237
1.0009048933325213
1.0009893428711378
1.0009049148073157
1.0009486980464353
1.0009049184339915
1.0009221753135664
1.0009049165327435
1.0009098450553293
1.0009049157743597
1.0009059314776396
1.0009049156568213
1.0009050698426012
1.0009049156464076
1.000904933481902
1.000904915645829
1.0009049188154675
1.000904915645829
1.000904933481902
1.0009049156464076
1.0009050698426012
1.0009049156568213
1.0009059314776396
1.0009049157743597
1.0009098450553293
1.0009049165327435
1.0009221753135664
1.0009049184339915
1.0009486980464353
1.0009049148073157
1.0009893428711378
1.0009048933325213
1.001032231036755
1.0032371172074521
1.0023297805003923
1.003237999230961
1.0027278476517005
1.0032383678765207
1.0030434319108501
1.0032383220769032
1.0031893882280287
1.0032382760495533
1.0032299075322266
1.0032382658807417
1.0032372449084921
1.0032382646058711
1.0032381718645758
1.0032382644954481
1.003238251719877
1.0032382644954481
1.0032381718645758
1.0032382646058711
1.0032372449084921
1.0032382658807417
1.0032299075322266
1.0032382760495533
1.0031893882280287
1.0032383220769032
1.0030434319108501
1.0032383678765207
1.0027278476517005
1.003237999230961
1.0023297805003923
1.0032371172074521
1.0019267346633276
1.0033082834626013
1.0035114578152964
1.0033083335873647
1.0034216412426131
1.0033083481391702
1.0033558110880907
1.0033083443744766
1.0033223733813479
1.0033083419165265
1.0033112794678269
1.0033083414102972
1.0033087902350128
1.0033083413495247
1.0033083933862528
1.0033083413444106
1.0033083505983638
1.0033083413444106
1.0033083933862528
1.0033083413495247
1.0033087902350128
1.0033083414102972
1.0033112794678269
1.0033083419165265
1.0033223733813479
1.0033083443744766
1.0033558110880907
1.0033083481391702
1.0034216412426131
1.0033083335873647
1.0035114578152964
1.0033082834626013
1.0035936025814203
1.0070021888793468
1.0068653987283291
1.0070024559438315
1.0069740200654174
1.0070025529263562
1.0070136998600858
1.007002545360957
1.0070114165783961
1.007002536308625
1.0070052401341907
1.0070025343007971
1.0070030384126818
1.0070025340510822
1.0070025999939001
1.0070025340297761
1.0070025466909018
1.0070025340297761
1.0070025999939001
1.0070025340510822
1.0070030384126818
1.0070025343007971
1.0070052401341907
1.007002536308625
1.0070114165783961
1.007002545360957
1.0070136998600858
1.0070025529263562
1.0069740200654174
1.0070024559438315
1.0068653987283291
1.0070021888793468
1.006692850924285
1.0119511792131493
1.0123275207684268
1.0119513503554876
1.0121749855389706
1.0119513943456055
1.012052016230012
1.0119513744069402
1.0119828836750302
1.0119513624260683
1.0119582448103377
1.0119513598857912
1.0119524438879384
1.0119513595712426
1.0119514880629488
1.0119513595440286
1.0119513827582969
1.0119513595440286
1.0119514880629488
1.0119513595712426
1.0119524438879384
1.0119513598857912
1.0119582448103377
1.0119513624260683
1.0119828836750302
1.0119513744069402
1.012052016230012
1.0119513943456055
1.0121749855389706
1.0119513503554876
1.0123275207684268
1.0119511792131493
1.0124316508531859
1.0226060890844404
1.0229735152730213
1.022606411243409
1.0228548486440452
1.0226064854243695
1.0227310073191671
1.0226064447160863
1.0226481677282742
1.0226064207472514
1.0226159092959479
1.0226064155959003
1.0226079469421991
1.0226064149499812
1.0226065992047992
1.0226064148935754
1.0226064484801325
1.0226064148935754
1.0226065992047992
1.0226064149499812
1.0226079469421991
1.0226064155959003
1.0226159092959479
1.0226064207472514
1.0226481677282742
1.0226064447160863
1.0227310073191671
1.0226064854243695
1.0228548486440452
1.022606411243409
1.0229735152730213
1.0226060890844404
1.0229773699100257
1.0414426170002702
1.0420194707381392
1.0414431386039678
1.0418018806858997
1.0414432204115729
1.0416165450459067
1.0414431371589727
1.0415005841891281
1.0414430926289551
1.0414561214865186
1.0414430831409052
1.0414451830952185
1.0414430819494138
1.0414433341000635
1.0414430818449789
1.0414431276621683
1.0414430818449789
1.0414433341000635
1.0414430819494138
1.0414451830952185
1.0414430831409052
1.0414561214865186
1.0414430926289551
1.0415005841891281
1.0414431371589727
1.0416165450459067
1.0414432204115729
1.0418018806858997
1.0414431386039678
1.0420194707381392
1.0414426170002702
1.0420877279156189
1.075154140819899
1.0758234498802304
1.0751550045382006
1.0755777193477682
1.0751550767687617
1.0753662957973407
1.0751549250153045
1.0752265289535987
1.0751548492519793
1.0751712551031165
1.0751548332561573
1.0751574814843807
1.0751548312515229
1.0751551478234054
1.0751548310760648
1.0751548881301209
1.0751548310760648
1.0751551478234054
1.0751548312515229
1.0751574814843807
1.0751548332561573
1.0751712551031165
1.0751548492519793
1.0752265289535987
1.0751549250153045
1.0753662957973407
1.0751550767687617
1.0755777193477682
1.0751550045382006
1.0758234498802304
1.075154140819899
1.0758581800212434
1.1320302174792098
1.1328333934487655
1.1320315733217623
1.1325278602586737
1.1320315730484523
1.1322823107492004
1.1320313166756557
1.1321168474314738
1.1320311984035429
1.1320507109407523
1.1320311739782616
1.1320342848423171
1.1320311709591
1.1320315360594364
1.132031170698077
1.1320312350761035
1.132031170698077
1.1320315360594364
1.1320311709591
1.1320342848423171
1.1320311739782616
1.1320507109407523
1.1320311984035429
1.1321168474314738
1.1320313166756557
1.1322823107492004
1.1320315730484523
1.1325278602586737
1.1320315733217623
1.1328333934487655
1.1320302174792098
1.1329642401978293
1.2213261460798481
1.2222287050927469
1.2213280585570265
1.2218841162145051
1.2213278994335386
1.2216129507462654
1.2213275077140695
1.2214244882298055
1.221327340936204
1.2213490743925577
1.2213273077082583
1.2213306770134462
1.2213273037147561
1.221327685324858
1.221327303378438
1.2213273680360788
1.221327303378438
1.221327685324858
1.2213273037147561
1.2213306770134462
1.2213273077082583
1.2213490743925577
1.221327340936204
1.2214244882298055
1.2213275077140695
1.2216129507462654
1.2213278994335386
1.2218841162145051
1.2213280585570265
1.2222287050927469
1.2213261460798481
1.2227001388253087
1.3463862613282356
1.3473483610086596
1.3463885910034925
1.3469899142500177
1.3463882127870344
1.346699489885623
1.34638768476418
1.3464918816548175
1.3463874761150112
1.3464100093212668
1.346387436534815
1.346390764069116
1.3463874319914468
1.3463877875224737
1.346387431626388
1.346387488168179
1.346387431626388
1.3463877875224737
1.3463874319914468
1.346390764069116
1.346387436534815
1.3464100093212668
1.3463874761150112
1.3464918816548175
1.34638768476418
1.346699489885623
1.3463882127870344
1.3469899142500177
1.3463885910034925
1.3473483610086596
1.3463862613282356
1.3486451353339457
1.496542174989171
1.4974975720871118
1.4965446176341832
1.4971702389287767
1.4965440967889987
1.4968700407271971
1.4965434890773297
1.4966485005327483
1.4965432652369937
1.4965645974218027
1.4965432257966798
1.4965461477032895
1.4965432215974013
1.4965435089650032
1.4965432212846164
1.4965432632616276
1.4965432212846164
1.4965435089650032
1.4965432215974013
1.4965461477032895
1.4965432257966798
1.4965645974218027
1.4965432652369937
1.4966485005327483
1.4965434890773297
1.4968700407271971
1.4965440967889987
1.4971702389287767
1.4965446176341832
1.4974975720871118
1.496542174989171
1.5
1.6470481460344333
1.6479708815685559
1.6470503189298225
1.6476957234347391
1.6470498859543006
1.6473748054364872
1.6470493243750335
1.6471458622653887
1.6470491333448252
1.6470669842074033