# vtk DataFile Version 3.0
Euler density step 112
ASCII
DATASET STRUCTURED_POINTS
DIMENSIONS 32 32 32
ORIGIN 0 0 0
SPACING 0.3125 0.3125 0.3125
POINT_DATA 32768
SCALARS density double 1
LOOKUP_TABLE default
1.0013486192340748
1.0010885154870477
1.0013486695923477
1.0013284174646766
1.0013486562217657
1.0013478086808589
1.0013486558026075
1.0013486343233065
1.0013486557963056
1.0013486554384814
1.0013486557962437
1.001348655792093
1.0013486557962434
1.0013486557962084
1.0013486557962434
1.001348655796243
1.0013486557962434
1.0013486557962084
1.0013486557962434
1.001348655792093
1.0013486557962437
1.0013486554384814
1.0013486557963056
1.0013486343233065
1.0013486558026075
1.0013478086808589
1.0013486562217657
1.0013284174646766
1.0013486695923477
1.0010885154870477
1.0013486192340748
1.0000453978687025
1.0000856236874545
1.0000856420057476
1.0000856236842306
1.0000856318148357
1.0000856236865117
1.0000856242251546
1.0000856236866482
1.0000856237041935
1.0000856236866529
1.0000856236869982
1.0000856236866529
1.0000856236866567
1.0000856236866529
1.0000856236866529
1.0000856236866529
1.0000856236866529
1.0000856236866529
1.0000856236866529
1.0000856236866529
1.0000856236866567
1.0000856236866529
1.0000856236869982
1.0000856236866529
1.0000856237041935
1.0000856236866482
1.0000856242251546
1.0000856236865117
1.0000856318148357
1.0000856236842306
1.0000856420057476
1.0000856236874545
1.0000848110417238
1.0004373422515416
1.0003979074290639
1.0004373476867023
1.0004349050655943
1.0004373474185455
1.0004372649200732
1.0004373474080062
1.0004373456869657
1.0004373474078427
1.000437347383841
1.0004373474078416
1.0004373474076049
1.0004373474078416
1.0004373474078394
1.0004373474078416
1.0004373474078416
1.0004373474078416
1.0004373474078394
1.0004373474078416
1.0004373474076049
1.0004373474078416
1.000437347383841
1.0004373474078427
1.0004373456869657
1.0004373474080062
1.0004372649200732
1.0004373474185455
1.0004349050655943
1.0004373476867023
1.0003979074290639
1.0004373422515416
1.0001584362191025
1.0002955506880091
1.0002957016550484
1.0002955506874369
1.0002955632382107
1.0002955506875004
1.0002955512377423
1.0002955506875058
1.0002955507020748
1.0002955506875058
1.0002955506877602
1.0002955506875058
1.0002955506875091
1.0002955506875058
1.0002955506875058
1.0002955506875058
1.0002955506875058
1.0002955506875058
1.0002955506875058
1.0002955506875058
1.0002955506875091
1.0002955506875058
1.0002955506877602
1.0002955506875058
1.0002955507020748
1.0002955506875058
1.0002955512377423
1.0002955506875004
1.0002955632382107
1.0002955506874369
1.0002957016550484
1.0002955506880091
1.0002959571135133
1.0005737578315195
1.0005715338948626
1.000573757972419
1.0005736548751178
1.000573757970453
1.0005737554337673
1.0005737579703318
1.0005737579341174
1.0005737579703295
1.0005737579700347
1.0005737579703295
1.0005737579703289
1.0005737579703295
1.0005737579703295
1.0005737579703295
1.0005737579703295
1.0005737579703295
1.0005737579703295
1.0005737579703295
1.0005737579703289
1.0005737579703295
1.0005737579700347
1.0005737579703295
1.0005737579341174
1.0005737579703318
1.0005737554337673
1.000573757970453
1.0005736548751178
1.000573757972419
1.0005715338948626
1.0005737578315195
1.0005527786369237
1.0010306203743362
1.0010311062910442
1.001030620374566
1.0010306586128905
1.0010306203745238
1.0010306220108016
1.0010306203745227
1.0010306204174046
1.0010306203745227
1.001030620375267
1.0010306203745227
1.0010306203745314
1.0010306203745227
1.0010306203745227
1.0010306203745227
1.0010306203745227
1.0010306203745227
1.0010306203745227
1.0010306203745227
1.0010306203745314
1.0010306203745227
1.001030620375267
1.0010306203745227
1.0010306204174046
1.0010306203745227
1.0010306220108016
1.0010306203745238
1.0010306586128905
1.001030620374566
1.0010311062910442
1.0010306203743362
1.001032231036755
1.0019246447446641
1.0019254542165632
1.0019246447475596
1.0019247114215795
1.0019246447474168
1.0019246476609078
1.0019246447474106
1.0019246448245032
1.0019246447474104
1.0019246447487558
1.0019246447474104
1.001924644747427
1.0019246447474104
1.0019246447474106
1.0019246447474104
1.0019246447474104
1.0019246447474104
1.0019246447474106
1.0019246447474104
1.001924644747427
1.0019246447474104
1.0019246447487558
1.0019246447474104
1.0019246448245032
1.0019246447474106
1.0019246476609078
1.0019246447474168
1.0019247114215795
1.0019246447475596
1.0019254542165632
1.0019246447446641
1.0019267346633276
1.0035880388483698
1.0035896867210914
1.0035880388514264
1.0035881678296985
1.0035880388509284
1.0035880443436056
1.0035880388509086
1.0035880389942091
1.0035880388509082
1.003588038853388
1.0035880388509082
1.0035880388509382
1.0035880388509082
1.0035880388509086
1.0035880388509082
1.0035880388509082
1.0035880388509082
1.0035880388509086
1.0035880388509082
1.0035880388509382
1.0035880388509082
1.003588038853388
1.0035880388509082
1.0035880389942091
1.0035880388509086
1.0035880443436056
1.0035880388509284
1.0035881678296985
1.0035880388514264
1.0035896867210914
1.0035880388483698
1.0035936025814203
1.0066826078451918
1.0066856310119237
1.0066826078551809
1.006682843963387
1.0066826078534923
1.0066826178831136
1.0066826078534277
1.0066826081143743
1.0066826078534266
1.0066826078579301
1.0066826078534266
1.0066826078534814
1.0066826078534266
1.0066826078534272
1.0066826078534266
1.0066826078534266
1.0066826078534266
1.0066826078534272
1.0066826078534266
1.0066826078534814
1.0066826078534266
1.0066826078579301
1.0066826078534266
1.0066826081143743
1.0066826078534277
1.0066826178831136
1.0066826078534923
1.006682843963387
1.0066826078551809
1.0066856310119237
1.0066826078451918
1.006692850924285
1.0124128287601555
1.0124183326746352
1.0124128287915457
1.0124132568426611
1.0124128287859091
1.0124128468896307
1.0124128287857013
1.01241282925453
1.0124128287856975
1.0124128287937491
1.0124128287856973
1.0124128287857947
1.0124128287856973
1.0124128287856988
1.0124128287856973
1.0124128287856973
1.0124128287856973
1.0124128287856988
1.0124128287856973
1.0124128287857947
1.0124128287856973
1.0124128287937491
1.0124128287856975
1.01241282925453
1.0124128287857013
1.0124128468896307
1.0124128287859091
1.0124132568426611
1.0124128287915457
1.0124183326746352
1.0124128287601555
1.0124316508531859
1.0229430499086256
1.0229529210552928
1.0229430500025654
1.0229438123783492
1.0229430499842529
1.022943081982792
1.0229430499835903
1.0229430508054429
1.0229430499835785
1.0229430499975707
1.0229430499835785
1.022943049983746
1.0229430499835785
1.0229430499835801
1.0229430499835785
1.0229430499835785
1.0229430499835785
1.0229430499835801
1.0229430499835785
1.022943049983746
1.0229430499835785
1.0229430499975707
1.0229430499835785
1.0229430508054429
1.0229430499835903
1.022943081982792
1.0229430499842529
1.0229438123783492
1.0229430500025654
1.0229529210552928
1.0229430499086256
1.0229773699100257
1.0420252217625263
1.0420425561974123
1.0420252220247599
1.0420265440089134
1.0420252219676054
1.0420252766908871
1.042025221965609
1.0420252233502851
1.0420252219655748
1.0420252219887798
1.0420252219655739
1.0420252219658466
1.0420252219655739
1.0420252219655768
1.0420252219655739
1.0420252219655739
1.0420252219655739
1.0420252219655768
1.0420252219655739
1.0420252219658466
1.0420252219655739
1.0420252219887798
1.0420252219655748
1.0420252233502851
1.042025221965609
1.0420252766908871
1.0420252219676054
1.0420265440089134
1.0420252220247599
1.0420425561974123
1.0420252217625263
1.0420877279156189
1.0757436268521166
1.0757731939845021
1.0757436275183354
1.0757458336547303
1.0757436273504348
1.0757437164828352
1.0757436273448446
1.0757436295417806
1.0757436273447507
1.0757436273805641
1.0757436273447496
1.0757436273451579
1.0757436273447496
1.0757436273447527
1.0757436273447496
1.0757436273447496
1.0757436273447496
1.0757436273447527
1.0757436273447496
1.0757436273451579
1.0757436273447496
1.0757436273805641
1.0757436273447507
1.0757436295417806
1.0757436273448446
1.0757437164828352
1.0757436273504348
1.0757458336547303
1.0757436275183354
1.0757731939845021
1.0757436268521166
1.0758581800212434
1.1327523965790369
1.1328008835518735
1.1327523980702254
1.1327558898749244
1.1327523976189351
1.1327525331175399
1.1327523976048568
1.1327524008013792
1.1327523976046319
1.1327523976543856
1.1327523976046296
1.1327523976051699
1.1327523976046296
1.1327523976046336
1.1327523976046296
1.1327523976046299
1.1327523976046296
1.1327523976046336
1.1327523976046296
1.1327523976051699
1.1327523976046296
1.1327523976543856
1.1327523976046319
1.1327524008013792
1.1327523976048568
1.1327525331175399
1.1327523976189351
1.1327558898749244
1.1327523980702254
1.1328008835518735
1.1327523965790369
1.1329642401978293
1.2223117091620188
1.2223869935037768
1.2223117120058362
1.2223168482758724
1.2223117109432977
1.222311898193388
1.2223117109129631
1.222311715041519
1.2223117109125088
1.2223117109723722
1.2223117109125037
1.2223117109131101
1.2223117109125037
1.2223117109125081
1.2223117109125037
1.2223117109125037
1.2223117109125037
1.2223117109125081
1.2223117109125037
1.2223117109131101
1.2223117109125037
1.2223117109723722
1.2223117109125088
1.222311715041519
1.2223117109129631
1.222311898193388
1.2223117109432977
1.2223168482758724
1.2223117120058362
1.2223869935037768
1.2223117091620188
1.2227001388253087
1.3479748932768922
1.3480824570997918
1.3479748977593797
1.3479817036412525
1.3479748957215281
1.3479751234625159
1.3479748956696478
1.3479749002529791
1.3479748956689448
1.3479748957294104
1.3479748956689384
1.3479748956694952
1.3479748956689384
1.3479748956689424
1.3479748956689384
1.3479748956689384
1.3479748956689384
1.3479748956689424
1.3479748956689384
1.3479748956694952
1.3479748956689384
1.3479748957294104
1.3479748956689448
1.3479749002529791
1.3479748956696478
1.3479751234625159
1.3479748957215281
1.3479817036412525
1.3479748977593797
1.3480824570997918
1.3479748932768922
1.3486451353339457
1.4989916424323697
1.4991268933780071
1.4989916480343077
1.4989994691726041
1.4989916451265364
1.4989918821739818
1.4989916450615295
1.4989916493644513
1.4989916450607446
1.4989916451118357
1.4989916450607386
1.4989916450611607
1.4989916450607383
1.4989916450607403
1.4989916450607383
1.4989916450607383
1.4989916450607383
1.4989916450607403
1.4989916450607383
1.4989916450611607
1.4989916450607386
1.4989916451118357
1.4989916450607446
1.4989916493644513
1.4989916450615295
1.4989918821739818
1.4989916451265364
1.4989994691726041
1.4989916480343077
1.4991268933780071
1.4989916424323697
1.5
1.6501103279835798
1.6502541085622091
1.6501103333549985
1.6501179367839864
1.6501103304422713
1.6501105400216878
1.6501103303846592
1.6501103338371279
1.6501103303840339
1.6501103304212017
1.6501103303840297
1.6501103303843081
1.6501103303840297
1.650110330384031
1.6501103303840297
1.6501103303840297
1.6501103303840297
1.650110330384031
1.6501103303840297
1.6501103303843081
1.6501103303840297
1.6501103304212017
1.6501103303840339
1.6501103338371279
1.6501103303846592
1.6501105400216878
1.6501103304422713
1.6501179367839864
1.6501103333549985
1.6502541085622091
1.6501103279835798
1.6513548646660543
1.7760612660443831
1.7761891880462848
1.7760612700546481
1.7760675429151116
1.7760612679916501
1.7760614280029214
1.7760612679546128
1.7760612703932852
1.7760612679542442
1.7760612679785346
1.776061267954242
1.7760612679544099
1.776061267954242
1.7760612679542425
1.776061267954242
1.776061267954242
1.776061267954242
1.7760612679542425
1.776061267954242
1.7760612679544099
1.776061267954242
1.7760612679785346
1.7760612679542442
1.7760612703932852
1.7760612679546128
1.7760614280029214
1.7760612679916501
1.7760675429151116
1.7760612700546481
1.7761891880462848
1.7760612660443831
1.7772998611746911
1.8660182938621537
1.8661155859453631
1.8660182962993657
1.8660228032575528
1.8660182952054309
1.8660184038858514
1.8660182951870636
1.8660182967544749
1.86601829518689
1.8660182952016733
1.8660182951868887
1.8660182951869866
1.8660182951868887
1.8660182951868896
1.8660182951868887
1.8660182951868887
1.8660182951868887
1.8660182951868896
1.8660182951868887
1.8660182951869866
1.8660182951868887
1.8660182952016733
1.86601829518689
1.8660182967544749
1.8660182951870636
1.8660184038858514
1.8660182952054309
1.8660228032575528
1.8660182962993657
1.8661155859453631
1.8660182938621537
1.8670357598021707
1.923421250585442
1.9234868216946697
1.9234212518297553
1.9234241703730899
1.9234212513621765
1.9234213191308887
1.923421251354648
1.9234212522974128
1.923421251354581
1.923421251363169
1.9234212513545803
1.923421251354634
1.9234212513545803
1.9234212513545805
1.9234212513545803
1.9234212513545803
1.9234212513545803
1.9234212513545805
1.9234212513545803
1.923421251354634
1.9234212513545803
1.923421251363169
1.923421251354581
1.9234212522974128
1.923421251354648
1.9234213191308887
1.9234212513621765
1.9234241703730899
1.9234212518297553
1.9234868216946697
1.923421250585442
1.9241418199787566
1.9574525286912769
1.957493109801038
1.9574525292349756
1.957454287910251
1.957452529062768
1.9574525689263536
1.9574525290600626
1.9574525296023895
1.9574525290600391
1.9574525290648763
1.9574525290600391
1.9574525290600691
1.9574525290600391
1.9574525290600391
1.9574525290600391
1.9574525290600391
1.9574525290600391
1.9574525290600391
1.9574525290600391
1.9574525290600691
1.9574525290600391
1.9574525290648763
1.9574525290600391
1.9574525296023895
1.9574525290600626
1.9574525689263536
1.957452529062768
1.957454287910251
1.9574525292349756
1.957493109801038
1.9574525286912769
1.9579122720843811
1.9767488812776901
1.9767726168696531
1.9767488814861054
1.9767498927106901
1.9767488814285774
1.976748904013331
1.9767488814276863
1.97674888173089
1.9767488814276786
1.9767488814303502
1.9767488814276786
1.9767488814276954
1.9767488814276786
1.9767488814276786
1.9767488814276786
1.9767488814276786
1.9767488814276786
1.9767488814276786
1.9767488814276786
1.9767488814276954
1.9767488814276786
1.9767488814303502
1.9767488814276786
1.97674888173089
1.9767488814276863
1.976748904013331
1.9767488814285774
1.9767498927106901
1.9767488814861054
1.9767726168696531
1.9767488812776901
1.9770226300899743
1.9874123269088244
1.987425727237965
1.9874123269811474
1.9874128919242886
1.9874123269630621
1.9874123394706498
1.9874123269627846
1.9874123271294224
1.9874123269627821
1.9874123269642399
1.9874123269627821
1.987412326962791
1.9874123269627821
1.9874123269627821
1.9874123269627821
1.9874123269627821
1.9874123269627821
1.9874123269627821
1.9874123269627821
1.987412326962791
1.9874123269627821
1.9874123269642399
1.9874123269627821
1.9874123271294224
1.9874123269627846
1.9874123394706498
1.9874123269630621
1.9874128919242886
1.9874123269811474
1.987425727237965
1.9874123269088244
1.9875683491468141
1.9932207771235648
1.9932281775567366
1.9932207771471029
1.9932210874186687
1.9932207771416159
1.9932207839791314
1.9932207771415325
1.9932207772322619
1.9932207771415313
1.9932207771423232
1.9932207771415313
1.9932207771415364
1.9932207771415313
1.9932207771415313
1.9932207771415313
1.9932207771415313
1.9932207771415313
1.9932207771415313
1.9932207771415313
1.9932207771415364
1.9932207771415313
1.9932207771423232
1.9932207771415313
1.9932207772322619
1.9932207771415325
1.9932207839791314
1.9932207771416159
1.9932210874186687
1.9932207771471029
1.9932281775567366
1.9932207771235648
1.993307149075715
1.9963591125303797
1.9963631694329014
1.9963591125376241
1.9963592819078266
1.9963591125359867
1.9963591162573278
1.996359112535961
1.9963591125852271
1.996359112535961
1.9963591125363902
1.996359112535961
1.9963591125359643
1.996359112535961
1.996359112535961
1.996359112535961
1.996359112535961
1.996359112535961
1.996359112535961
1.996359112535961
1.9963591125359643
1.996359112535961
1.9963591125363902
1.996359112535961
1.9963591125852271
1.996359112535961
1.9963591162573278
1.9963591125359867
1.9963592819078266
1.9963591125376241
1.9963631694329014
1.9963591125303797
1.9964063974185799
1.9980564666152638
1.9980581074776207
1.9980564666342664
1.9980565433780086
1.9980564666335865
1.9980564684286046
1.9980564666335725
1.9980564666582299
1.9980564666335725
1.9980564666337912
1.9980564666335725
1.9980564666335738
1.9980564666335725
1.9980564666335725
1.9980564666335725
1.9980564666335725
1.9980564666335725
1.9980564666335725
1.9980564666335725
1.9980564666335738
1.9980564666335725
1.9980564666337912
1.9980564666335725
1.9980564666582299
1.9980564666335725
1.9980564684286046
1.9980564666335865
1.9980565433780086
1.9980564666342664
1.9980581074776207
1.9980564666152638
1.9980732653366724
1.9989538587367892
1.9989550880732374
1.9989538587371269
1.998953909839561
1.9989538587369979
1.9989538598567906
1.9989538587369973
1.9989538587517974
1.9989538587369973
1.9989538587371261
1.9989538587369973
1.9989538587369975
1.9989538587369973
1.9989538587369973
1.9989538587369973
1.9989538587369973
1.9989538587369973
1.9989538587369973
1.9989538587369973
1.9989538587369975
1.9989538587369973
1.9989538587371261
1.9989538587369973
1.9989538587517974
1.9989538587369973
1.9989538598567906
1.9989538587369979
1.998953909839561
1.9989538587371269
1.9989550880732374
1.9989538587367892
1.9989677689632452
1.9996357630671309
1.9996198417726834
1.9996357642116296
1.9996352236822164
1.9996357641651581
1.9996357544206949
1.9996357641641622
1.9996357640568603
1.9996357641641527
1.9996357641633666
1.9996357641641527
1.9996357641641487
1.9996357641641527
1.9996357641641527
1.9996357641641527
1.9996357641641527
1.9996357641641527
1.9996357641641527
1.9996357641641527
1.9996357641641487
1.9996357641641527
1.9996357641633666
1.9996357641641527
1.9996357640568603
1.9996357641641622
1.9996357544206949
1.9996357641651581
1.9996352236822164
1.9996357642116296
1.9996198417726834
1.9996357630671309
1.9994472213630763
1.9996994426355537
1.999699965259093
1.9996994426338839
1.999699465869976
1.999699442635146
1.9996994431635706
1.9996994426351757
1.9996994426423165
1.999699442635176
1.9996994426352395
1.999699442635176
1.9996994426351764
1.999699442635176
1.999699442635176
1.999699442635176
1.999699442635176
1.999699442635176
1.999699442635176
1.999699442635176
1.9996994426351764
1.999699442635176
1.9996994426352395
1.999699442635176
1.9996994426423165
1.9996994426351757
1.9996994431635706
1.999699442635146
1.999699465869976
1.9996994426338839
1.999699965259093
1.9996994426355537
1.999704042886487
2.0015432970179496
2.0013558205368351
2.0015433038350818
2.0015349109078269
2.0015432997167624
2.0015431067827394
2.0015432996514959
2.0015432970162639
2.0015432996509159
2.0015432996274622
2.0015432996509133
2.0015432996507672
2.0015432996509133
2.0015432996509124
2.0015432996509133
2.0015432996509133
2.0015432996509133
2.0015432996509124
2.0015432996509133
2.0015432996507672
2.0015432996509133
2.0015432996274622
2.0015432996509159
2.0015432970162639
2.0015432996514959
2.0015431067827394
2.0015432997167624
2.0015349109078269
2.0015433038350818
2.0013558205368351
2.0015432970179496
1.9998415637808975
1.9999151889582765
1.9999151889582765
1.9999151889582765
1.9999151889582765
1.9999151889582765
1.9999151889582765
1.9999151889582765
1.9999151889582765
1.9999151889582765
1.9999151889582765
1.9999151889582765
1.9999151889582765
1.9999151889582765
1.9999151889582765
1.9999151889582765
1.9999151889582765
1.9999151889582765
1.9999151889582765
1.9999151889582765
1.9999151889582765
1.9999151889582765
1.9999151889582765
1.9999151889582765
1.9999151889582765
1.9999151889582765
1.9999151889582765
1.9999151889582765
1.9999151889582765
1.9999151889582765
1.9999151889582765
1.9999151889582765
1.9999151889582765
1.0033236448489371
1.0028497196575559
1.0033237693993671
1.0032797303330936
1.0033236985870453
1.0033215639766311
1.0033236957635889
1.0033236342707956
1.0033236957073437
1.0033236945551773
1.0033236957065905
1.0033236956916392
1.0033236957065834
1.003323695706442
1.0033236957065834
1.0033236957065819
1.0033236957065834
1.003323695706442
1.0033236957065834
1.0033236956916392
1.0033236957065905
1.0033236945551773
1.0033236957073437
1.0033236342707956
1.0033236957635889
1.0033215639766311
1.0033236985870453
1.0032797303330936
1.0033237693993671
1.0028497196575559
1.0033236448489371
1.0000453978687025
1.0000879467494574
1.0000875138134804
1.0000879467648203
1.0000879164440974
1.0000879467567014
1.0000879455408576
1.0000879467563735
1.0000879467258768
1.0000879467563653
1.0000879467558543
1.0000879467563653
1.0000879467563599
1.0000879467563653
1.0000879467563653
1.0000879467563653
1.0000879467563653
1.0000879467563653
1.0000879467563653
1.0000879467563653
1.0000879467563599
1.0000879467563653
1.0000879467558543
1.0000879467563653
1.0000879467258768
1.0000879467563735
1.0000879455408576
1.0000879467567014
1.0000879164440974
1.0000879467648203
1.0000875138134804
1.0000879467494574
1.0000848110417238
1.0006727190200735
1.0005873030302821
1.0006727420252726
1.0006666134083353
1.0006727400651638
1.0006725043363875
1.0006727399684456
1.0006727344262774
1.0006727399664115
1.0006727398797743
1.0006727399663848
1.0006727399654296
1.0006727399663846
1.0006727399663768
1.0006727399663846
1.0006727399663844
1.0006727399663846
1.0006727399663768
1.0006727399663846
1.0006727399654296
1.0006727399663848
1.0006727398797743
1.0006727399664115
1.0006727344262774
1.0006727399684456
1.0006725043363875
1.0006727400651638
1.0006666134083353
1.0006727420252726
1.0005873030302821
1.0006727190200735
1.0001584362191025
1.0002952863365773
1.0002954179365477
1.0002952863449086
1.0002952993365122
1.0002952863442085
1.0002952869807609
1.0002952863441752
1.0002952863623229
1.000295286344175
1.0002952863445091
1.000295286344175
1.000295286344179
1.000295286344175
1.000295286344175
1.000295286344175
1.000295286344175
1.000295286344175
1.000295286344175
1.000295286344175
1.000295286344179
1.000295286344175
1.0002952863445091
1.000295286344175
1.0002952863623229
1.0002952863441752
1.0002952869807609
1.0002952863442085
1.0002952993365122
1.0002952863449086
1.0002954179365477
1.0002952863365773
1.0002959571135133
1.000598238522979
1.0005924085253657
1.0005982393186068
1.0005979201835185
1.0005982392949881
1.0005982297923974
1.0005982392933734
1.0005982391190413
1.0005982392933384
1.0005982392912149
1.0005982392933377
1.0005982392933197
1.0005982392933377
1.0005982392933377
1.0005982392933377
1.0005982392933377
1.0005982392933377
1.0005982392933377
1.0005982392933377
1.0005982392933197
1.0005982392933377
1.0005982392912149
1.0005982392933384
1.0005982391190413
1.0005982392933734
1.0005982297923974
1.0005982392949881
1.0005979201835185
1.0005982393186068
1.0005924085253657
1.000598238522979
1.0005527786369237
1.0010275226752068
1.0010282997288924
1.0010275226761585
1.0010275868397875
1.0010275226760035
1.0010275255163918
1.001027522675997
1.0010275227520995
1.001027522675997
1.0010275226773397
1.001027522675997
1.0010275226760132
1.001027522675997
1.001027522675997
1.001027522675997
1.001027522675997
1.001027522675997
1.001027522675997
1.001027522675997
1.0010275226760132
1.001027522675997
1.0010275226773397
1.001027522675997
1.0010275227520995
1.001027522675997
1.0010275255163918
1.0010275226760035
1.0010275868397875
1.0010275226761585
1.0010282997288924
1.0010275226752068
1.001032231036755
1.0019201921415599
1.0019214017856268
1.0019201921589225
1.0019203004933559
1.0019201921583201
1.0019201971474334
1.0019201921582839
1.0019201922947185
1.0019201921582832
1.0019201921607148
1.0019201921582832
1.001920192158313
1.0019201921582832
1.0019201921582837
1.0019201921582832
1.0019201921582832
1.0019201921582832
1.0019201921582837
1.0019201921582832
1.001920192158313
1.0019201921582832
1.0019201921607148
1.0019201921582832
1.0019201922947185
1.0019201921582839
1.0019201971474334
1.0019201921583201
1.0019203004933559
1.0019201921589225
1.0019214017856268
1.0019201921415599
1.0019267346633276
1.0035772187762859
1.0035798959689231
1.0035772187842424
1.0035774390687522
1.0035772187825356
1.0035772285074644
1.0035772187824716
1.0035772190424193
1.0035772187824701
1.0035772187870415
1.0035772187824701
1.0035772187825249
1.0035772187824701
1.0035772187824707
1.0035772187824701
1.0035772187824701
1.0035772187824701
1.0035772187824707
1.0035772187824701
1.0035772187825249
1.0035772187824701
1.0035772187870415
1.0035772187824701
1.0035772190424193
1.0035772187824716
1.0035772285074644
1.0035772187825356
1.0035774390687522
1.0035772187842424
1.0035798959689231
1.0035772187762859
1.0035936025814203
1.0066627747264334
1.0066676679834254
1.0066627747518835
1.0066631772909391
1.0066627747461501
1.006662792496742
1.006662774745934
1.0066627752195993
1.0066627747459296
1.0066627747542423
1.0066627747459296
1.0066627747460313
1.0066627747459296
1.0066627747459305
1.0066627747459296
1.0066627747459296
1.0066627747459296
1.0066627747459305
1.0066627747459296
1.0066627747460313
1.0066627747459296
1.0066627747542423
1.0066627747459296
1.0066627752195993
1.006662774745934
1.006662792496742
1.0066627747461501
1.0066631772909391
1.0066627747518835
1.0066676679834254
1.0066627747264334
1.006692850924285
1.0123767131418429
1.0123855569107669
1.0123767132182386
1.012377438794958
1.0123767131994461
1.0123767450910677
1.0123767131987484
1.0123767140465503
1.0123767131987353
1.0123767132135537
1.0123767131987353
1.0123767131989163
1.0123767131987353
1.0123767131987369
1.0123767131987353
1.0123767131987353
1.0123767131987353
1.0123767131987369
1.0123767131987353
1.0123767131989163
1.0123767131987353
1.0123767132135537
1.0123767131987353
1.0123767140465503
1.0123767131987484
1.0123767450910677
1.0123767131994461
1.012377438794958
1.0123767132182386
1.0123855569107669
1.0123767131418429
1.0124316508531859
1.0228784638934167
1.0228941064038721
1.0228784641091624
1.0228797412539321
1.0228784640499557
1.0228785198374246
1.022878464047807
1.0228784655201792
1.0228784640477691
1.0228784640732975
1.0228784640477686
1.0228784640480768
1.0228784640477686
1.0228784640477708
1.0228784640477686
1.0228784640477686
1.0228784640477686
1.0228784640477708
1.0228784640477686
1.0228784640480768
1.0228784640477686
1.0228784640732975
1.0228784640477691
1.0228784655201792
1.022878464047807
1.0228785198374246
1.0228784640499557
1.0228797412539321
1.0228784641091624
1.0228941064038721
1.0228784638934167
1.0229773699100257
1.041912369034522
1.0419392410725818
1.0419123695907422
1.0419145409811275
1.04191236941486
1.0419124631001822
1.0419123694086707
1.0419123718473033
1.0419123694085597
1.0419123694502206
1.041912369408559
1.041912369409056
1.041912369408559
1.0419123694085628
1.041912369408559
1.041912369408559
1.041912369408559
1.0419123694085628
1.041912369408559
1.041912369409056
1.041912369408559
1.0419123694502206
1.0419123694085597
1.0419123718473033
1.0419123694086707
1.0419124631001822
1.04191236941486
1.0419145409811275
1.0419123695907422
1.0419392410725818
1.041912369034522
1.0420877279156189
1.0755531399893612
1.0755974957942447
1.0755531412634476
1.0755566548620294
1.0755531407837697
1.0755532889186343
1.0755531407675982
1.0755531445270741
1.07555314076732
1.0755531408298455
1.0755531407673169
1.075553140768041
1.0755531407673169
1.0755531407673227
1.0755531407673169
1.0755531407673171
1.0755531407673169
1.0755531407673227
1.0755531407673169
1.075553140768041
1.0755531407673169
1.0755531408298455
1.07555314076732
1.0755531445270741
1.0755531407675982
1.0755532889186343
1.0755531407837697
1.0755566548620294
1.0755531412634476
1.0755974957942447
1.0755531399893612
1.0758581800212434
1.1324477900930792
1.1325172152850633
1.1324477926113685
1.132453103014456
1.1324477914534448
1.1324480064687512
1.1324477914166751
1.1324477966394306
1.1324477914160749
1.1324477914990327
1.1324477914160676
1.1324477914169822
1.1324477914160676
1.1324477914160755
1.1324477914160676
1.1324477914160678
1.1324477914160676
1.1324477914160755
1.1324477914160676
1.1324477914169822
1.1324477914160676
1.1324477914990327
1.1324477914160749
1.1324477966394306
1.1324477914166751
1.1324480064687512
1.1324477914534448
1.132453103014456
1.1324477926113685
1.1325172152850633
1.1324477900930792
1.1329642401978293
1.2218653911578099
1.221966520556915
1.2218653953643577
1.2218727018276894
1.2218653930190404
1.2218656702211017
1.2218653929505541
1.2218653992331918
1.2218653929495082
1.2218653930424004
1.2218653929494974
1.221865392950451
1.2218653929494971
1.2218653929495047
1.2218653929494971
1.2218653929494974
1.2218653929494971
1.2218653929495047
1.2218653929494971
1.221865392950451
1.2218653929494974
1.2218653930424004
1.2218653929495082
1.2218653992331918
1.2218653929505541
1.2218656702211017
1.2218653930190404
1.2218727018276894
1.2218653953643577
1.221966520556915
1.2218653911578099
1.2227001388253087
1.3474071103949408
1.347539885552856
1.3474071161837109
1.347415948510877
1.3474071124904283
1.3474074184569433
1.3474071123937896
1.3474071187029133
1.3474071123924507
1.3474071124771723
1.3474071123924383
1.3474071123932254
1.347407112392438
1.3474071123924432
1.347407112392438
1.3474071123924383
1.347407112392438
1.3474071123924432
1.347407112392438
1.3474071123932254
1.3474071123924383
1.3474071124771723
1.3474071123924507
1.3474071187029133
1.3474071123937896
1.3474074184569433
1.3474071124904283
1.347415948510877
1.3474071161837109
1.347539885552856
1.3474071103949408
1.3486451353339457
1.4984058830598874
1.4985565080496834
1.4984058893336996
1.4984149604510726
1.4984058851355286
1.4984061679562
1.4984058850383437
1.4984058902774853
1.4984058850371349
1.4984058851002999
1.4984058850371238
1.4984058850376518
1.4984058850371238
1.4984058850371271
1.4984058850371238
1.4984058850371238
1.4984058850371238
1.4984058850371271
1.4984058850371238
1.4984058850376518
1.4984058850371238
1.4984058851002999
1.4984058850371349
1.4984058902774853
1.4984058850383437
1.4984061679562
1.4984058851355286
1.4984149604510726
1.4984058893336996
1.4985565080496834
1.4984058830598874
1.5
1.6496478680029207
1.6497916083106983
1.6496478732719331
1.6496557218179753
1.64964786991212
1.6496480911962843
1.6496478698425729
1.6496478735489619
1.6496478698417898
1.6496478698822055
1.6496478698417834