# vtk DataFile Version 3.0
Euler density step 28
ASCII
DATASET STRUCTURED_POINTS
DIMENSIONS 32 32 32
ORIGIN 0 0 0
SPACING 0.3125 0.3125 0.3125
POINT_DATA 32768
SCALARS density double 1
LOOKUP_TABLE default
1.0001513061838818
1.0001498722788591
1.0001513061857212
1.0001513005023845
1.0001513061853342
1.0001513061752008
1.000151306185334
1.0001513061853247
1.000151306185334
1.000151306185334
1.000151306185334
1.000151306185334
1.000151306185334
1.000151306185334
1.000151306185334
1.000151306185334
1.000151306185334
1.000151306185334
1.000151306185334
1.000151306185334
1.000151306185334
1.000151306185334
1.000151306185334
1.0001513061853247
1.000151306185334
1.0001513061752008
1.0001513061853342
1.0001513005023845
1.0001513061857212
1.0001498722788591
1.0001513061838818
1.0000453978687025
1.0000848173025771
1.0000848174936943
1.0000848173025774
1.0000848173036221
1.0000848173025774
1.0000848173025791
1.0000848173025774
1.0000848173025774
1.0000848173025774
1.0000848173025774
1.0000848173025774
1.0000848173025774
1.0000848173025774
1.0000848173025774
1.0000848173025774
1.0000848173025774
1.0000848173025774
1.0000848173025774
1.0000848173025774
1.0000848173025774
1.0000848173025774
1.0000848173025774
1.0000848173025774
1.0000848173025774
1.0000848173025774
1.0000848173025791
1.0000848173025774
1.0000848173036221
1.0000848173025774
1.0000848174936943
1.0000848173025771
1.0000848110417238
1.000159863334771
1.0001598523699016
1.0001598633348705
1.0001598633061703
1.0001598633348703
1.0001598633348365
1.0001598633348703
1.0001598633348703
1.0001598633348703
1.0001598633348703
1.0001598633348703
1.0001598633348703
1.0001598633348703
1.0001598633348703
1.0001598633348703
1.0001598633348703
1.0001598633348703
1.0001598633348703
1.0001598633348703
1.0001598633348703
1.0001598633348703
1.0001598633348703
1.0001598633348703
1.0001598633348703
1.0001598633348703
1.0001598633348365
1.0001598633348703
1.0001598633061703
1.0001598633348705
1.0001598523699016
1.000159863334771
1.0001584362191025
1.0002959337061872
1.0002959343747053
1.0002959337061872
1.0002959337089994
1.0002959337061872
1.000295933706193
1.0002959337061872
1.0002959337061872
1.0002959337061872
1.0002959337061872
1.0002959337061872
1.0002959337061872
1.0002959337061872
1.0002959337061872
1.0002959337061872
1.0002959337061872
1.0002959337061872
1.0002959337061872
1.0002959337061872
1.0002959337061872
1.0002959337061872
1.0002959337061872
1.0002959337061872
1.0002959337061872
1.0002959337061872
1.000295933706193
1.0002959337061872
1.0002959337089994
1.0002959337061872
1.0002959343747053
1.0002959337061872
1.0002959571135133
1.0005527403591632
1.0005527415165429
1.0005527403591632
1.000552740364073
1.0005527403591632
1.000552740359173
1.0005527403591632
1.0005527403591632
1.0005527403591632
1.0005527403591632
1.0005527403591632
1.0005527403591632
1.0005527403591632
1.0005527403591632
1.0005527403591632
1.0005527403591632
1.0005527403591632
1.0005527403591632
1.0005527403591632
1.0005527403591632
1.0005527403591632
1.0005527403591632
1.0005527403591632
1.0005527403591632
1.0005527403591632
1.000552740359173
1.0005527403591632
1.000552740364073
1.0005527403591632
1.0005527415165429
1.0005527403591632
1.0005527786369237
1.001032148636263
1.0010321507925184
1.001032148636263
1.0010321486452398
1.001032148636263
1.0010321486362803
1.001032148636263
1.001032148636263
1.001032148636263
1.001032148636263
1.001032148636263
1.001032148636263
1.001032148636263
1.001032148636263
1.001032148636263
1.001032148636263
1.001032148636263
1.001032148636263
1.001032148636263
1.001032148636263
1.001032148636263
1.001032148636263
1.001032148636263
1.001032148636263
1.001032148636263
1.0010321486362803
1.001032148636263
1.0010321486452398
1.001032148636263
1.0010321507925184
1.001032148636263
1.001032231036755
1.001926580224217
1.0019265841843739
1.001926580224217
1.0019265802406556
1.001926580224217
1.0019265802242481
1.001926580224217
1.001926580224217
1.001926580224217
1.001926580224217
1.001926580224217
1.001926580224217
1.001926580224217
1.001926580224217
1.001926580224217
1.001926580224217
1.001926580224217
1.001926580224217
1.001926580224217
1.001926580224217
1.001926580224217
1.001926580224217
1.001926580224217
1.001926580224217
1.001926580224217
1.0019265802242481
1.001926580224217
1.0019265802406556
1.001926580224217
1.0019265841843739
1.001926580224217
1.0019267346633276
1.0035933125950796
1.0035933199065465
1.0035933125950796
1.0035933126253462
1.0035933125950796
1.0035933125951355
1.0035933125950796
1.0035933125950796
1.0035933125950796
1.0035933125950796
1.0035933125950796
1.0035933125950796
1.0035933125950796
1.0035933125950796
1.0035933125950796
1.0035933125950796
1.0035933125950796
1.0035933125950796
1.0035933125950796
1.0035933125950796
1.0035933125950796
1.0035933125950796
1.0035933125950796
1.0035933125950796
1.0035933125950796
1.0035933125951355
1.0035933125950796
1.0035933126253462
1.0035933125950796
1.0035933199065465
1.0035933125950796
1.0035936025814203
1.0066923045501317
1.0066923180573697
1.0066923045501317
1.0066923046058425
1.0066923045501317
1.0066923045502352
1.0066923045501317
1.0066923045501317
1.0066923045501317
1.0066923045501317
1.0066923045501317
1.0066923045501317
1.0066923045501317
1.0066923045501317
1.0066923045501317
1.0066923045501317
1.0066923045501317
1.0066923045501317
1.0066923045501317
1.0066923045501317
1.0066923045501317
1.0066923045501317
1.0066923045501317
1.0066923045501317
1.0066923045501317
1.0066923045502352
1.0066923045501317
1.0066923046058425
1.0066923045501317
1.0066923180573697
1.0066923045501317
1.006692850924285
1.0124306149431905
1.012430639803221
1.0124306149431912
1.012430615045113
1.0124306149431912
1.0124306149433788
1.0124306149431912
1.0124306149431912
1.0124306149431912
1.0124306149431912
1.0124306149431912
1.0124306149431912
1.0124306149431912
1.0124306149431912
1.0124306149431912
1.0124306149431912
1.0124306149431912
1.0124306149431912
1.0124306149431912
1.0124306149431912
1.0124306149431912
1.0124306149431912
1.0124306149431912
1.0124306149431912
1.0124306149431912
1.0124306149433788
1.0124306149431912
1.012430615045113
1.0124306149431912
1.012430639803221
1.0124306149431905
1.0124316508531859
1.022975385947662
1.0229754312728117
1.0229753859476636
1.022975386131544
1.0229753859476631
1.0229753859479991
1.0229753859476631
1.0229753859476636
1.0229753859476631
1.0229753859476631
1.0229753859476631
1.0229753859476631
1.0229753859476631
1.0229753859476631
1.0229753859476631
1.0229753859476631
1.0229753859476631
1.0229753859476631
1.0229753859476631
1.0229753859476631
1.0229753859476631
1.0229753859476631
1.0229753859476631
1.0229753859476636
1.0229753859476631
1.0229753859479991
1.0229753859476631
1.022975386131544
1.0229753859476636
1.0229754312728117
1.022975385947662
1.0229773699100257
1.0420838757386766
1.0420839568811469
1.0420838757386814
1.0420838760617948
1.0420838757386801
1.042083875739259
1.0420838757386801
1.0420838757386803
1.0420838757386801
1.0420838757386801
1.0420838757386801
1.0420838757386801
1.0420838757386801
1.0420838757386801
1.0420838757386801
1.0420838757386801
1.0420838757386801
1.0420838757386801
1.0420838757386801
1.0420838757386801
1.0420838757386801
1.0420838757386801
1.0420838757386801
1.0420838757386803
1.0420838757386801
1.042083875739259
1.0420838757386801
1.0420838760617948
1.0420838757386814
1.0420839568811469
1.0420838757386766
1.0420877279156189
1.0758506077940182
1.0758507484036348
1.0758506077940297
1.0758506083362582
1.0758506077940257
1.0758506077949657
1.0758506077940257
1.0758506077940262
1.0758506077940257
1.0758506077940257
1.0758506077940257
1.0758506077940257
1.0758506077940257
1.0758506077940257
1.0758506077940257
1.0758506077940257
1.0758506077940257
1.0758506077940257
1.0758506077940257
1.0758506077940257
1.0758506077940257
1.0758506077940257
1.0758506077940257
1.0758506077940262
1.0758506077940257
1.0758506077949657
1.0758506077940257
1.0758506083362582
1.0758506077940297
1.0758507484036348
1.0758506077940182
1.0758581800212434
1.1329494230585284
1.1329496536521941
1.1329494230585526
1.1329494239025195
1.1329494230585433
1.1329494230599308
1.1329494230585433
1.1329494230585446
1.1329494230585433
1.1329494230585433
1.1329494230585433
1.1329494230585433
1.1329494230585433
1.1329494230585433
1.1329494230585433
1.1329494230585433
1.1329494230585433
1.1329494230585433
1.1329494230585433
1.1329494230585433
1.1329494230585433
1.1329494230585433
1.1329494230585433
1.1329494230585446
1.1329494230585433
1.1329494230599308
1.1329494230585433
1.1329494239025195
1.1329494230585526
1.1329496536521941
1.1329494230585284
1.1329642401978293
1.2226724950433652
1.2226728415057009
1.2226724950434087
1.2226724962171243
1.2226724950433889
1.2226724950451746
1.2226724950433889
1.2226724950433903
1.2226724950433889
1.2226724950433889
1.2226724950433889
1.2226724950433889
1.2226724950433889
1.2226724950433889
1.2226724950433889
1.2226724950433889
1.2226724950433889
1.2226724950433889
1.2226724950433889
1.2226724950433889
1.2226724950433889
1.2226724950433889
1.2226724950433889
1.2226724950433903
1.2226724950433889
1.2226724950451746
1.2226724950433889
1.2226724962171243
1.2226724950434087
1.2226728415057009
1.2226724950433652
1.2227001388253087
1.3485990937808987
1.3485995524861356
1.34859909378096
1.3485990951875078
1.3485990937809293
1.3485990937828649
1.3485990937809291
1.3485990937809305
1.3485990937809291
1.3485990937809291
1.3485990937809291
1.3485990937809291
1.3485990937809291
1.3485990937809291
1.3485990937809291
1.3485990937809291
1.3485990937809291
1.3485990937809291
1.3485990937809291
1.3485990937809291
1.3485990937809291
1.3485990937809291
1.3485990937809291
1.3485990937809305
1.3485990937809291
1.3485990937828649
1.3485990937809293
1.3485990951875078
1.34859909378096
1.3485995524861356
1.3485990937808987
1.3486451353339457
1.499935796534565
1.4999363137118651
1.4999357965346323
1.4999357979573642
1.499935796534597
1.4999357965363525
1.499935796534597
1.4999357965345983
1.499935796534597
1.499935796534597
1.499935796534597
1.499935796534597
1.499935796534597
1.499935796534597
1.499935796534597
1.499935796534597
1.499935796534597
1.499935796534597
1.499935796534597
1.499935796534597
1.499935796534597
1.499935796534597
1.499935796534597
1.4999357965345983
1.499935796534597
1.4999357965363525
1.499935796534597
1.4999357979573642
1.4999357965346323
1.4999363137118651
1.499935796534565
1.5
1.6512825747146866
1.6512830635827538
1.6512825747147415
1.6512825759329328
1.6512825747147135
1.6512825747160742
1.6512825747147135
1.651282574714714
1.6512825747147135
1.6512825747147135
1.6512825747147135
1.6512825747147135
1.6512825747147135
1.6512825747147135
1.6512825747147135
1.6512825747147135
1.6512825747147135
1.6512825747147135
1.6512825747147135
1.6512825747147135
1.6512825747147135
1.6512825747147135
1.6512825747147135
1.651282574714714
1.6512825747147135
1.6512825747160742
1.6512825747147135
1.6512825759329328
1.6512825747147415
1.6512830635827538
1.6512825747146866
1.6513548646660543
1.7772340763815373
1.777234467431914
1.7772340763815724
1.7772340772842734
1.7772340763815555
1.7772340763824899
1.7772340763815555
1.7772340763815559
1.7772340763815555
1.7772340763815555
1.7772340763815555
1.7772340763815555
1.7772340763815555
1.7772340763815555
1.7772340763815555
1.7772340763815555
1.7772340763815555
1.7772340763815555
1.7772340763815555
1.7772340763815555
1.7772340763815555
1.7772340763815555
1.7772340763815555
1.7772340763815559
1.7772340763815555
1.7772340763824899
1.7772340763815555
1.7772340772842734
1.7772340763815724
1.777234467431914
1.7772340763815373
1.7772998611746911
1.8669858235369676
1.8669860960304616
1.8669858235369876
1.8669858241343127
1.8669858235369796
1.866985823537566
1.8669858235369796
1.8669858235369798
1.8669858235369796
1.8669858235369796
1.8669858235369796
1.8669858235369796
1.8669858235369796
1.8669858235369796
1.8669858235369796
1.8669858235369796
1.8669858235369796
1.8669858235369796
1.8669858235369796
1.8669858235369796
1.8669858235369796
1.8669858235369796
1.8669858235369796
1.8669858235369798
1.8669858235369796
1.866985823537566
1.8669858235369796
1.8669858241343127
1.8669858235369876
1.8669860960304616
1.8669858235369676
1.8670357598021707
1.9241086902104776
1.9241088618363971
1.9241086902104869
1.9241086905749321
1.9241086902104836
1.9241086902108311
1.9241086902104836
1.9241086902104836
1.9241086902104836
1.9241086902104836
1.9241086902104836
1.9241086902104836
1.9241086902104836
1.9241086902104836
1.9241086902104836
1.9241086902104836
1.9241086902104836
1.9241086902104836
1.9241086902104836
1.9241086902104836
1.9241086902104836
1.9241086902104836
1.9241086902104836
1.9241086902104836
1.9241086902104836
1.9241086902108311
1.9241086902104836
1.9241086905749321
1.9241086902104869
1.9241088618363971
1.9241086902104776
1.9241418199787566
1.9578921715996387
1.9578922727030104
1.957892171599642
1.9578921718104205
1.9578921715996414
1.9578921715998383
1.9578921715996414
1.9578921715996414
1.9578921715996414
1.9578921715996414
1.9578921715996414
1.9578921715996414
1.9578921715996414
1.9578921715996414
1.9578921715996414
1.9578921715996414
1.9578921715996414
1.9578921715996414
1.9578921715996414
1.9578921715996414
1.9578921715996414
1.9578921715996414
1.9578921715996414
1.9578921715996414
1.9578921715996414
1.9578921715998383
1.9578921715996414
1.9578921718104205
1.957892171599642
1.9578922727030104
1.9578921715996387
1.9579122720843811
1.9770110833969023
1.9770111405806789
1.9770110833969032
1.9770110835149057
1.9770110833969028
1.9770110833970127
1.9770110833969028
1.9770110833969028
1.9770110833969028
1.9770110833969028
1.9770110833969028
1.9770110833969028
1.9770110833969028
1.9770110833969028
1.9770110833969028
1.9770110833969028
1.9770110833969028
1.9770110833969028
1.9770110833969028
1.9770110833969028
1.9770110833969028
1.9770110833969028
1.9770110833969028
1.9770110833969028
1.9770110833969028
1.9770110833970127
1.9770110833969028
1.9770110835149057
1.9770110833969032
1.9770111405806789
1.9770110833969023
1.9770226300899743
1.9875619229733419
1.9875619545831054
1.9875619229733428
1.9875619230382178
1.9875619229733426
1.9875619229734025
1.9875619229733426
1.9875619229733426
1.9875619229733426
1.9875619229733426
1.9875619229733426
1.9875619229733426
1.9875619229733426
1.9875619229733426
1.9875619229733426
1.9875619229733426
1.9875619229733426
1.9875619229733426
1.9875619229733426
1.9875619229733426
1.9875619229733426
1.9875619229733426
1.9875619229733426
1.9875619229733426
1.9875619229733426
1.9875619229734025
1.9875619229733426
1.9875619230382178
1.9875619229733428
1.9875619545831054
1.9875619229733419
1.9875683491468141
1.9933036355975311
1.9933036528719141
1.9933036355975311
1.9933036356328908
1.9933036355975311
1.9933036355975635
1.9933036355975311
1.9933036355975311
1.9933036355975311
1.9933036355975311
1.9933036355975311
1.9933036355975311
1.9933036355975311
1.9933036355975311
1.9933036355975311
1.9933036355975311
1.9933036355975311
1.9933036355975311
1.9933036355975311
1.9933036355975311
1.9933036355975311
1.9933036355975311
1.9933036355975311
1.9933036355975311
1.9933036355975311
1.9933036355975635
1.9933036355975311
1.9933036356328908
1.9933036355975311
1.9933036528719141
1.9933036355975311
1.993307149075715
1.9964044950806119
1.996404504487199
1.9964044950806119
1.9964044950998512
1.9964044950806119
1.9964044950806301
1.9964044950806119
1.9964044950806119
1.9964044950806119
1.9964044950806119
1.9964044950806119
1.9964044950806119
1.9964044950806119
1.9964044950806119
1.9964044950806119
1.9964044950806119
1.9964044950806119
1.9964044950806119
1.9964044950806119
1.9964044950806119
1.9964044950806119
1.9964044950806119
1.9964044950806119
1.9964044950806119
1.9964044950806119
1.9964044950806301
1.9964044950806119
1.9964044950998512
1.9964044950806119
1.996404504487199
1.9964044950806119
1.9964063974185799
1.9980722420300501
1.9980722471645356
1.9980722420300501
1.9980722420405623
1.9980722420300501
1.9980722420300594
1.9980722420300501
1.9980722420300501
1.9980722420300501
1.9980722420300501
1.9980722420300501
1.9980722420300501
1.9980722420300501
1.9980722420300501
1.9980722420300501
1.9980722420300501
1.9980722420300501
1.9980722420300501
1.9980722420300501
1.9980722420300501
1.9980722420300501
1.9980722420300501
1.9980722420300501
1.9980722420300501
1.9980722420300501
1.9980722420300594
1.9980722420300501
1.9980722420405623
1.9980722420300501
1.9980722471645356
1.9980722420300501
1.9980732653366724
1.9989672186913234
1.9989672215279066
1.9989672186913234
1.9989672186971421
1.9989672186913234
1.9989672186913285
1.9989672186913234
1.9989672186913234
1.9989672186913234
1.9989672186913234
1.9989672186913234
1.9989672186913234
1.9989672186913234
1.9989672186913234
1.9989672186913234
1.9989672186913234
1.9989672186913234
1.9989672186913234
1.9989672186913234
1.9989672186913234
1.9989672186913234
1.9989672186913234
1.9989672186913234
1.9989672186913234
1.9989672186913234
1.9989672186913285
1.9989672186913234
1.9989672186971421
1.9989672186913234
1.9989672215279066
1.9989672186913234
1.9989677689632452
1.9994475376117717
1.9994475366960778
1.9994475376117804
1.9994475376115981
1.9994475376117804
1.9994475376117817
1.9994475376117804
1.9994475376117804
1.9994475376117804
1.9994475376117804
1.9994475376117804
1.9994475376117804
1.9994475376117804
1.9994475376117804
1.9994475376117804
1.9994475376117804
1.9994475376117804
1.9994475376117804
1.9994475376117804
1.9994475376117804
1.9994475376117804
1.9994475376117804
1.9994475376117804
1.9994475376117804
1.9994475376117804
1.9994475376117817
1.9994475376117804
1.9994475376115981
1.9994475376117804
1.9994475366960778
1.9994475376117717
1.9994472213630763
1.9997038822504247
1.9997038832103209
1.9997038822504247
1.9997038822524191
1.9997038822504247
1.9997038822504269
1.9997038822504247
1.9997038822504247
1.9997038822504247
1.9997038822504247
1.9997038822504247
1.9997038822504247
1.9997038822504247
1.9997038822504247
1.9997038822504247
1.9997038822504247
1.9997038822504247
1.9997038822504247
1.9997038822504247
1.9997038822504247
1.9997038822504247
1.9997038822504247
1.9997038822504247
1.9997038822504247
1.9997038822504247
1.9997038822504269
1.9997038822504247
1.9997038822524191
1.9997038822504247
1.9997038832103209
1.9997038822504247
1.999704042886487
1.9999415361131363
1.9999409266308972
1.9999415361131969
1.9999415348560825
1.9999415361131612
1.9999415361120021
1.9999415361131612
1.9999415361131603
1.9999415361131612
1.9999415361131612
1.9999415361131612
1.9999415361131612
1.9999415361131612
1.9999415361131612
1.9999415361131612
1.9999415361131612
1.9999415361131612
1.9999415361131612
1.9999415361131612
1.9999415361131612
1.9999415361131612
1.9999415361131612
1.9999415361131612
1.9999415361131603
1.9999415361131612
1.9999415361120021
1.9999415361131612
1.9999415348560825
1.9999415361131969
1.9999409266308972
1.9999415361131363
1.9998415637808975
1.9999151889582765
1.9999151889582765
1.9999151889582765
1.9999151889582765
1.9999151889582765
1.9999151889582765
1.9999151889582765
1.9999151889582765
1.9999151889582765
1.9999151889582765
1.9999151889582765
1.9999151889582765
1.9999151889582765
1.9999151889582765
1.9999151889582765
1.9999151889582765
1.9999151889582765
1.9999151889582765
1.9999151889582765
1.9999151889582765
1.9999151889582765
1.9999151889582765
1.9999151889582765
1.9999151889582765
1.9999151889582765
1.9999151889582765
1.9999151889582765
1.9999151889582765
1.9999151889582765
1.9999151889582765
1.9999151889582765
1.9999151889582765
1.0006567261643005
1.0006529615751443
1.0006567261697026
1.0006567077138067
1.0006567261668069
1.0006567261260566
1.0006567261668027
1.0006567261667567
1.0006567261668027
1.0006567261668027
1.0006567261668027
1.0006567261668027
1.0006567261668027
1.0006567261668027
1.0006567261668027
1.0006567261668027
1.0006567261668027
1.0006567261668027
1.0006567261668027
1.0006567261668027
1.0006567261668027
1.0006567261668027
1.0006567261668027
1.0006567261667567
1.0006567261668027
1.0006567261260566
1.0006567261668069
1.0006567077138067
1.0006567261697026
1.0006529615751443
1.0006567261643005
1.0000453978687025
1.0000849139209926
1.0000849128811549
1.0000849139209931
1.0000849139163737
1.0000849139209929
1.0000849139209838
1.0000849139209929
1.0000849139209929
1.0000849139209929
1.0000849139209929
1.0000849139209929
1.0000849139209929
1.0000849139209929
1.0000849139209929
1.0000849139209929
1.0000849139209929
1.0000849139209929
1.0000849139209929
1.0000849139209929
1.0000849139209929
1.0000849139209929
1.0000849139209929
1.0000849139209929
1.0000849139209929
1.0000849139209929
1.0000849139209838
1.0000849139209929
1.0000849139163737
1.0000849139209931
1.0000849128811549
1.0000849139209926
1.0000848110417238
1.0001621073546134
1.0001620709314167
1.0001621073553455
1.0001621072350235
1.0001621073553426
1.0001621073551612
1.0001621073553426
1.0001621073553426
1.0001621073553426
1.0001621073553426
1.0001621073553426
1.0001621073553426
1.0001621073553426
1.0001621073553426
1.0001621073553426
1.0001621073553426
1.0001621073553426
1.0001621073553426
1.0001621073553426
1.0001621073553426
1.0001621073553426
1.0001621073553426
1.0001621073553426
1.0001621073553426
1.0001621073553426
1.0001621073551612
1.0001621073553426
1.0001621072350235
1.0001621073553455
1.0001620709314167
1.0001621073546134
1.0001584362191025
1.0002957499324527
1.0002957507643437
1.0002957499324527
1.0002957499358114
1.0002957499324527
1.0002957499324587
1.0002957499324527
1.0002957499324527
1.0002957499324527
1.0002957499324527
1.0002957499324527
1.0002957499324527
1.0002957499324527
1.0002957499324527
1.0002957499324527
1.0002957499324527
1.0002957499324527
1.0002957499324527
1.0002957499324527
1.0002957499324527
1.0002957499324527
1.0002957499324527
1.0002957499324527
1.0002957499324527
1.0002957499324527
1.0002957499324587
1.0002957499324527
1.0002957499358114
1.0002957499324527
1.0002957507643437
1.0002957499324527
1.0002959571135133
1.000552407835221
1.0005524093086233
1.0005524078352224
1.000552407841435
1.0005524078352224
1.0005524078352339
1.0005524078352224
1.0005524078352224
1.0005524078352224
1.0005524078352224
1.0005524078352224
1.0005524078352224
1.0005524078352224
1.0005524078352224
1.0005524078352224
1.0005524078352224
1.0005524078352224
1.0005524078352224
1.0005524078352224
1.0005524078352224
1.0005524078352224
1.0005524078352224
1.0005524078352224
1.0005524078352224
1.0005524078352224
1.0005524078352339
1.0005524078352224
1.000552407841435
1.0005524078352224
1.0005524093086233
1.000552407835221
1.0005527786369237
1.0010315041903983
1.0010315071897478
1.0010315041903983
1.0010315042026647
1.0010315041903983
1.0010315041904208
1.0010315041903983
1.0010315041903983
1.0010315041903983
1.0010315041903983
1.0010315041903983
1.0010315041903983
1.0010315041903983
1.0010315041903983
1.0010315041903983
1.0010315041903983
1.0010315041903983
1.0010315041903983
1.0010315041903983
1.0010315041903983
1.0010315041903983
1.0010315041903983
1.0010315041903983
1.0010315041903983
1.0010315041903983
1.0010315041904208
1.0010315041903983
1.0010315042026647
1.0010315041903983
1.0010315071897478
1.0010315041903983
1.001032231036755
1.0019253787072568
1.0019253843210769
1.0019253787072568
1.0019253787302662
1.0019253787072568
1.0019253787072993
1.0019253787072568
1.0019253787072568
1.0019253787072568
1.0019253787072568
1.0019253787072568
1.0019253787072568
1.0019253787072568
1.0019253787072568
1.0019253787072568
1.0019253787072568
1.0019253787072568
1.0019253787072568
1.0019253787072568
1.0019253787072568
1.0019253787072568
1.0019253787072568
1.0019253787072568
1.0019253787072568
1.0019253787072568
1.0019253787072993
1.0019253787072568
1.0019253787302662
1.0019253787072568
1.0019253843210769
1.0019253787072568
1.0019267346633276
1.0035910761159352
1.003591086586614
1.0035910761159355
1.0035910761588571
1.0035910761159355
1.0035910761160147
1.0035910761159355
1.0035910761159355
1.0035910761159355
1.0035910761159355
1.0035910761159355
1.0035910761159355
1.0035910761159355
1.0035910761159355
1.0035910761159355
1.0035910761159355
1.0035910761159355
1.0035910761159355
1.0035910761159355
1.0035910761159355
1.0035910761159355
1.0035910761159355
1.0035910761159355
1.0035910761159355
1.0035910761159355
1.0035910761160147
1.0035910761159355
1.0035910761588571
1.0035910761159355
1.003591086586614
1.0035910761159352
1.0035936025814203
1.0066881548215809
1.0066881742687817
1.0066881548215811
1.0066881549011466
1.0066881548215809
1.0066881548217275
1.0066881548215809
1.0066881548215811
1.0066881548215809
1.0066881548215809
1.0066881548215809
1.0066881548215809
1.0066881548215809
1.0066881548215809
1.0066881548215809
1.0066881548215809
1.0066881548215809
1.0066881548215809
1.0066881548215809
1.0066881548215809
1.0066881548215809
1.0066881548215809
1.0066881548215809
1.0066881548215811
1.0066881548215809
1.0066881548217275
1.0066881548215809
1.0066881549011466
1.0066881548215811
1.0066881742687817
1.0066881548215809
1.006692850924285
1.0124229602061281
1.0124229960922162
1.0124229602061294
1.012422960352271
1.0124229602061292
1.0124229602063961
1.0124229602061292
1.0124229602061294
1.0124229602061292
1.0124229602061292
1.0124229602061292
1.0124229602061292
1.0124229602061292
1.0124229602061292
1.0124229602061292
1.0124229602061292
1.0124229602061292
1.0124229602061292
1.0124229602061292
1.0124229602061292
1.0124229602061292
1.0124229602061292
1.0124229602061292
1.0124229602061294
1.0124229602061292
1.0124229602063961
1.0124229602061292
1.012422960352271
1.0124229602061294
1.0124229960922162
1.0124229602061281
1.0124316508531859
1.0229614170967865
1.0229614825801701
1.0229614170967893
1.0229614173610462
1.0229614170967882
1.0229614170972676
1.0229614170967882
1.0229614170967885
1.0229614170967882
1.0229614170967882
1.0229614170967882
1.0229614170967882
1.0229614170967882
1.0229614170967882
1.0229614170967882
1.0229614170967882
1.0229614170967882
1.0229614170967882
1.0229614170967882
1.0229614170967882
1.0229614170967882
1.0229614170967882
1.0229614170967882
1.0229614170967885
1.0229614170967882
1.0229614170972676
1.0229614170967882
1.0229614173610462
1.0229614170967893
1.0229614825801701
1.0229614170967865
1.0229773699100257
1.0420588775383868
1.0420589946770067
1.0420588775383945
1.042058878003304
1.0420588775383919
1.0420588775392214
1.0420588775383919
1.042058877538393
1.0420588775383919
1.0420588775383919
1.0420588775383919
1.0420588775383919
1.0420588775383919
1.0420588775383919
1.0420588775383919
1.0420588775383919
1.0420588775383919
1.0420588775383919
1.0420588775383919
1.0420588775383919
1.0420588775383919
1.0420588775383919
1.0420588775383919
1.042058877538393
1.0420588775383919
1.0420588775392214
1.0420588775383919
1.042058878003304
1.0420588775383945
1.0420589946770067
1.0420588775383868
1.0420877279156189
1.0758073893036153
1.0758075916418888
1.075807389303634
1.0758073900836354
1.0758073893036271
1.0758073893049784
1.0758073893036271
1.0758073893036282
1.0758073893036271
1.0758073893036271
1.0758073893036271
1.0758073893036271
1.0758073893036271
1.0758073893036271
1.0758073893036271
1.0758073893036271
1.0758073893036271
1.0758073893036271
1.0758073893036271
1.0758073893036271
1.0758073893036271
1.0758073893036271
1.0758073893036271
1.0758073893036282
1.0758073893036271
1.0758073893049784
1.0758073893036271
1.0758073900836354
1.075807389303634
1.0758075916418888
1.0758073893036153
1.0758581800212434
1.1328789426291115
1.132879271884401
1.1328789426291495
1.1328789438387326
1.1328789426291304
1.1328789426311277
1.1328789426291304
1.1328789426291319
1.1328789426291304
1.1328789426291304
1.1328789426291304
1.1328789426291304
1.1328789426291304
1.1328789426291304
1.1328789426291304
1.1328789426291304
1.1328789426291304
1.1328789426291304
1.1328789426291304
1.1328789426291304
1.1328789426291304
1.1328789426291304
1.1328789426291304
1.1328789426291319
1.1328789426291304
1.1328789426311277
1.1328789426291304
1.1328789438387326
1.1328789426291495
1.132879271884401
1.1328789426291115
1.1329642401978293
1.2225676837833337
1.2225681704306757
1.2225676837833965
1.2225676854452847
1.2225676837833583
1.2225676837859087
1.2225676837833583
1.2225676837833606
1.2225676837833583
1.2225676837833583
1.2225676837833583
1.2225676837833583
1.2225676837833583
1.2225676837833583
1.2225676837833583
1.2225676837833583
1.2225676837833583
1.2225676837833583
1.2225676837833583
1.2225676837833583
1.2225676837833583
1.2225676837833583
1.2225676837833583
1.2225676837833606
1.2225676837833583
1.2225676837859087
1.2225676837833583
1.2225676854452847
1.2225676837833965
1.2225681704306757
1.2225676837833337
1.2227001388253087
1.3484624691089415
1.3484630944615623
1.348462469109027
1.3484624710456112
1.3484624691089691
1.3484624691116622
1.3484624691089691
1.3484624691089711
1.3484624691089691
1.3484624691089691
1.3484624691089691
1.3484624691089691
1.3484624691089691
1.3484624691089691
1.3484624691089691
1.3484624691089691
1.3484624691089691
1.3484624691089691
1.3484624691089691
1.3484624691089691
1.3484624691089691
1.3484624691089691
1.3484624691089691
1.3484624691089711
1.3484624691089691
1.3484624691116622
1.3484624691089691
1.3484624710456112
1.348462469109027
1.3484630944615623
1.3484624691089415
1.3486451353339457
1.4997848436438401
1.4997855187440323
1.4997848436439272
1.4997848455139968
1.4997848436438665
1.4997848436461902
1.4997848436438665
1.4997848436438685
1.4997848436438665
1.4997848436438665
1.4997848436438665
1.4997848436438665
1.4997848436438665
1.4997848436438665
1.4997848436438665
1.4997848436438665
1.4997848436438665
1.4997848436438665
1.4997848436438665
1.4997848436438665
1.4997848436438665
1.4997848436438665
1.4997848436438665
1.4997848436438685
1.4997848436438665
1.4997848436461902
1.4997848436438665
1.4997848455139968
1.4997848436439272
1.4997855187440323
1.4997848436438401
1.5
1.6511432054920419
1.6511438143915238
1.6511432054921111
1.6511432070107823
1.6511432054920672
1.6511432054937625
1.6511432054920669
1.6511432054920676
1.6511432054920669