# vtk DataFile Version 3.0
Euler density step 512
ASCII
DATASET STRUCTURED_POINTS
DIMENSIONS 32 32 32
ORIGIN 0 0 0
SPACING 0.3125 0.3125 0.3125
POINT_DATA 32768
SCALARS density double 1
LOOKUP_TABLE default
1.0088967428354243
1.0018869075497014
1.0089308122993046
1.0038802789306029
1.0089416967996154
1.0053546984731911
1.0089427071382608
1.0065914467355725
1.0089388820312746
1.0077110924840407
1.0089336850448245
1.0084630502910277
1.0089309755010076
1.0087952587312023
1.0089302336439097
1.0088755025167253
1.0089302336439097
1.0087952587312023
1.0089309755010076
1.0084630502910277
1.0089336850448245
1.0077110924840407
1.0089388820312746
1.0065914467355725
1.0089427071382608
1.0053546984731911
1.0089416967996154
1.0038802789306029
1.0089308122993046
1.0018869075497014
1.0088967428354243
1.0000453978687025
0.99985591681049957
1.0000169614026195
0.99985576112718599
0.99995287535174782
0.99985571111300442
0.99990509935480687
0.99985571505795634
0.99987667265487046
0.99985572923843247
0.99986328362732124
0.99985574283985978
0.9998580553467874
0.99985575021813644
0.99985635230568315
0.99985575252123327
0.99985598903670736
0.99985575252123327
0.99985635230568315
0.99985575021813644
0.9998580553467874
0.99985574283985978
0.99986328362732124
0.99985572923843247
0.99987667265487046
0.99985571505795634
0.99990509935480687
0.99985571111300442
0.99995287535174782
0.99985576112718599
1.0000169614026195
0.99985591681049957
1.0000848110417238
1.0082805446454379
1.0021005561298035
1.008300543974078
1.0037519950055553
1.008310850936071
1.0050524291717708
1.0083138857570941
1.0061960235702834
1.0083114725609641
1.0072446262512822
1.0083075486138868
1.0079198703770627
1.0083056254388281
1.0082007253364882
1.0083051397982319
1.0082652173350222
1.0083051397982319
1.0082007253364882
1.0083056254388281
1.0079198703770627
1.0083075486138868
1.0072446262512822
1.0083114725609641
1.0061960235702834
1.0083138857570941
1.0050524291717708
1.008310850936071
1.0037519950055553
1.008300543974078
1.0021005561298035
1.0082805446454379
1.0001584362191025
0.99973583578381586
1.0001305600410475
0.99973585889819772
0.99998191064441055
0.99973585421572153
0.99986564433398806
0.99973584309489294
0.99979169200263274
0.99973584104601687
0.99975514103314678
0.99973584766718426
0.99974117192364576
0.99973585248455354
0.9997370495314345
0.99973585400321363
0.99973626360084455
0.99973585400321363
0.9997370495314345
0.99973585248455354
0.99974117192364576
0.99973584766718426
0.99975514103314678
0.99973584104601687
0.99979169200263274
0.99973584309489294
0.99986564433398806
0.99973585421572153
0.99998191064441055
0.99973585889819772
1.0001305600410475
0.99973583578381586
1.0002959571135133
1.0066995081270684
1.0018385549286772
1.006709023751708
1.0030087926782678
1.006716305464757
1.0039958865339067
1.0067194669878401
1.00503382267833
1.0067180325813443
1.005953094544487
1.0067158474371676
1.006469144749351
1.0067149428357949
1.0066557760289963
1.0067147445405025
1.006694406822547
1.0067147445405025
1.0066557760289963
1.0067149428357949
1.006469144749351
1.0067158474371676
1.005953094544487
1.0067180325813443
1.00503382267833
1.0067194669878401
1.0039958865339067
1.006716305464757
1.0030087926782678
1.006709023751708
1.0018385549286772
1.0066995081270684
1.0005527786369237
0.99993677209224852
1.0007268848847108
0.99993695655404025
1.0004469623057657
0.9999370914912532
1.0002187037404495
0.99993711348578607
1.0000627515190732
0.999937094803523
0.99998075719355461
0.99993708493480682
0.99994880000374642
0.99993708301371642
0.99993957875736772
0.99993708285526706
0.99993788764464719
0.99993708285526706
0.99993957875736772
0.99993708301371642
0.99994880000374642
0.99993708493480682
0.99998075719355461
0.999937094803523
1.0000627515190732
0.99993711348578607
1.0002187037404495
0.9999370914912532
1.0004469623057657
0.99993695655404025
1.0007268848847108
0.99993677209224852
1.001032231036755
1.0063190449022608
1.0028013489501051
1.0063234391642333
1.0036339095810398
1.0063279681745467
1.0044807477705722
1.0063298536871113
1.0053460362722555
1.0063292393169778
1.005953941197784
1.0063284840051838
1.0062258536466739
1.0063282230051316
1.0063071585672607
1.0063281726292397
1.0063218308835429
1.0063281726292397
1.0063071585672607
1.0063282230051316
1.0062258536466739
1.0063284840051838
1.005953941197784
1.0063292393169778
1.0053460362722555
1.0063298536871113
1.0044807477705722
1.0063279681745467
1.0036339095810398
1.0063234391642333
1.0028013489501051
1.0063190449022608
1.0019267346633276
1.0017843572255309
1.0031286883506525
1.0017848464669676
1.0026897672033861
1.0017852668224048
1.0023162081943224
1.0017853650358228
1.0020380994265923
1.0017853039041489
1.0018780237126148
1.0017852575899258
1.0018111515270407
1.0017852439751211
1.0017909238860536
1.0017852415955677
1.0017871101172349
1.0017852415955677
1.0017909238860536
1.0017852439751211
1.0018111515270407
1.0017852575899258
1.0018780237126148
1.0017853039041489
1.0020380994265923
1.0017853650358228
1.0023162081943224
1.0017852668224048
1.0026897672033861
1.0017848464669676
1.0031286883506525
1.0017843572255309
1.0035936025814203
1.008891606444158
1.0072674872571725
1.0088940025907027
1.0078055843846594
1.0088964915990402
1.0083202048854567
1.0088973662198457
1.0086905787869185
1.008897203118952
1.0088529881319268
1.008897002400059
1.0088934726291143
1.00889693761562
1.0088979448803863
1.0088969255975309
1.0088977216196078
1.0088969255975309
1.0088979448803863
1.00889693761562
1.0088934726291143
1.008897002400059
1.0088529881319268
1.008897203118952
1.0086905787869185
1.0088973662198457
1.0083202048854567
1.0088964915990402
1.0078055843846594
1.0088940025907027
1.0072674872571725
1.008891606444158
1.006692850924285
1.0097943682437964
1.0118074564483135
1.0097955849934526
1.0111954246433343
1.0097965570764684
1.0106635585331067
1.0097967602892433
1.0102364995472886
1.009796557893385
1.0099674606843656
1.009796403594529
1.0098464343283375
1.0097963557292815
1.0098077604047013
1.009796346960999
1.0098002074232675
1.009796346960999
1.0098077604047013
1.0097963557292815
1.0098464343283375
1.009796403594529
1.0099674606843656
1.009796557893385
1.0102364995472886
1.0097967602892433
1.0106635585331067
1.0097965570764684
1.0111954246433343
1.0097955849934526
1.0118074564483135
1.0097943682437964
1.0124316508531859
1.0223227021493881
1.0230119570673391
1.0223250182137107
1.0229711775550214
1.0223268539025674
1.0228862881413727
1.0223273049668007
1.0226962949591951
1.0223270133676567
1.0224971182544647
1.0223267619807646
1.0223821817354379
1.0223266798724657
1.0223402273786335
1.0223266643098687
1.0223314522523328
1.0223266643098687
1.0223402273786335
1.0223266798724657
1.0223821817354379
1.0223267619807646
1.0224971182544647
1.0223270133676567
1.0226962949591951
1.0223273049668007
1.0228862881413727
1.0223268539025674
1.0229711775550214
1.0223250182137107
1.0230119570673391
1.0223227021493881
1.0229773699100257
1.038471479494276
1.0412836439846396
1.0384745835454707
1.0404389719704092
1.0384764821812009
1.0397295535298707
1.0384767067915288
1.039140785799693
1.0384761365546182
1.0387449761779137
1.0384757269751472
1.0385569376133279
1.0384755976442228
1.0384945366708671
1.0384755734518605
1.0384820786629179
1.0384755734518605
1.0384945366708671
1.0384755976442228
1.0385569376133279
1.0384757269751472
1.0387449761779137
1.0384761365546182
1.039140785799693
1.0384767067915288
1.0397295535298707
1.0384764821812009
1.0404389719704092
1.0384745835454707
1.0412836439846396
1.038471479494276
1.0420877279156189
1.0725655738631832
1.0752708323739435
1.0725706885570971
1.0745306319380226
1.0725731846869473
1.0739011707265365
1.0725733144748615
1.0733161826606159
1.0725724380145085
1.072883591751542
1.0725718313822763
1.0726674945725223
1.0725716402275252
1.0725941040491016
1.0725716044602096
1.0725793243437447
1.0725716044602096
1.0725941040491016
1.0725716402275252
1.0726674945725223
1.0725718313822763
1.072883591751542
1.0725724380145085
1.0733161826606159
1.0725733144748615
1.0739011707265365
1.0725731846869473
1.0745306319380226
1.0725706885570971
1.0752708323739435
1.0725655738631832
1.0758581800212434
1.1279681003241335
1.1319008878317494
1.1279767278871962
1.1306345843858494
1.1279796689777453
1.1296752614309558
1.1279793793121364
1.1288924376055436
1.1279779907587622
1.1283514692650256
1.1279771133148806
1.128089797642277
1.1279768457360857
1.1280028070676744
1.1279767966862169
1.1279855592113917
1.1279767966862169
1.1280028070676744
1.1279768457360857
1.128089797642277
1.1279771133148806
1.1283514692650256
1.1279779907587622
1.1288924376055436
1.1279793793121364
1.1296752614309558
1.1279796689777453
1.1306345843858494
1.1279767278871962
1.1319008878317494
1.1279681003241335
1.1329642401978293
1.2170555235531879
1.2215155516403
1.2170694747478459
1.2200447778249845
1.2170724390101761
1.2189871302081592
1.2170714455768887
1.2181118233992612
1.2170694052576221
1.2174936593591565
1.2170682128144714
1.2171943867587203
1.2170678633849827
1.21709625928009
1.2170678013303105
1.2170771390138619
1.2170678013303105
1.21709625928009
1.2170678633849827
1.2171943867587203
1.2170682128144714
1.2174936593591565
1.2170694052576221
1.2181118233992612
1.2170714455768887
1.2189871302081592
1.2170724390101761
1.2200447778249845
1.2170694747478459
1.2215155516403
1.2170555235531879
1.2227001388253087
1.3415748757774888
1.34679923962881
1.3415952121010384
1.3450135341642604
1.3415974968162525
1.3437884539422544
1.3415954425672734
1.3427790691198165
1.3415925818693362
1.3420666804847996
1.3415910447077295
1.34172801071002
1.34159061944674
1.341620278577796
1.3415905475430707
1.341599914639606
1.3415905475430707
1.341620278577796
1.34159061944674
1.34172801071002
1.3415910447077295
1.3420666804847996
1.3415925818693362
1.3427790691198165
1.3415954425672734
1.3437884539422544
1.3415974968162525
1.3450135341642604
1.3415952121010384
1.34679923962881
1.3415748757774888
1.3486451353339457
1.4913043335275389
1.4968230560734921
1.4913300417823108
1.4950037956833653
1.4913307722320459
1.4937379196611622
1.4913274558408802
1.4926306545417125
1.4913237389494749
1.4918344032280504
1.4913218996152333
1.4914638719668571
1.4913214250618609
1.4913506508165346
1.4913213497347937
1.4913301036354984
1.4913213497347937
1.4913506508165346
1.4913214250618609
1.4914638719668571
1.4913218996152333
1.4918344032280504
1.4913237389494749
1.4926306545417125
1.4913274558408802
1.4937379196611622
1.4913307722320459
1.4950037956833653
1.4913300417823108
1.4968230560734921
1.4913043335275389
1.5
1.6405411072051441
1.6461469235980608
1.6405698214054567
1.6444194386310891
1.640569088392932
1.6431494312283963
1.6405647421214455
1.641952047786114
1.6405603572418519
1.6410853152478897
1.6405583601551978
1.6406969189697806
1.6405578862369614
1.6405846496705669
1.6405578166548591
1.6405653300364353
1.6405578166548591
1.6405846496705669
1.6405578862369614
1.6406969189697806
1.6405583601551978
1.6410853152478897
1.6405603572418519
1.641952047786114
1.6405647421214455
1.6431494312283963
1.640569088392932
1.6444194386310891
1.6405698214054567
1.6461469235980608
1.6405411072051441
1.6513548646660543
1.7653593576028441
1.7708430633899006
1.7653872901197432
1.7693062021857897
1.7653868505094577
1.768068444041393
1.7653822388735341
1.7667925414728964
1.7653776466312978
1.7658843580872707
1.7653757309225309
1.765500977972944
1.7653753176542293
1.7653977940999792
1.7653752620306624
1.7653811342090915
1.7653752620306624
1.7653977940999792
1.7653753176542293
1.765500977972944
1.7653757309225309
1.7658843580872707
1.7653776466312978
1.7667925414728964
1.7653822388735341
1.768068444041393
1.7653868505094577
1.7693062021857897
1.7653872901197432
1.7708430633899006
1.7653593576028441
1.7772998611746911
1.8551579165007608
1.8606735056881833
1.8551828166442579
1.8591867192548166
1.8551839308279665
1.8578969903710967
1.8551796696452481
1.8565347214044776
1.8551754282815982
1.8556291257526019
1.8551738274563079
1.8552778359982787
1.8551735151569095
1.8551907958963674
1.8551734766339292
1.8551776763259176
1.8551734766339292
1.8551907958963674
1.8551735151569095
1.8552778359982787
1.8551738274563079
1.8556291257526019
1.8551754282815982
1.8565347214044776
1.8551796696452481
1.8578969903710967
1.8551839308279665
1.8591867192548166
1.8551828166442579
1.8606735056881833
1.8551579165007608
1.8670357598021707
1.9139120094674011
1.9190969881577897
1.9139321494898802
1.9178139672039636
1.9139345806567587
1.916511976849725
1.9139311011379718
1.9151361935969138
1.9139277001137684
1.9143013237019371
1.9139265408453126
1.91400597557701
1.9139263352856228
1.9139386056731611
1.9139263118781251
1.9139291018859608
1.9139263118781251
1.9139386056731611
1.9139263352856228
1.91400597557701
1.9139265408453126
1.9143013237019371
1.9139277001137684
1.9151361935969138
1.9139311011379718
1.916511976849725
1.9139345806567587
1.9178139672039636
1.9139321494898802
1.9190969881577897
1.9139120094674011
1.9241418199787566
1.9484542298152545
1.9538210129563249
1.9484695332184638
1.9523239482507415
1.9484723796692385
1.9508265761989405
1.9484697695410915
1.9494729429248649
1.9484673688625289
1.9487535193150627
1.948466630790527
1.9485231892852384
1.9484665109582782
1.9484746897749179
1.9484664982459352
1.9484682527838271
1.9484664982459352
1.9484746897749179
1.9484665109582782
1.9485231892852384
1.948466630790527
1.9487535193150627
1.9484673688625289
1.9494729429248649
1.9484697695410915
1.9508265761989405
1.9484723796692385
1.9523239482507415
1.9484695332184638
1.9538210129563249
1.9484542298152545
1.9579122720843811
1.9707105970893923
1.9745935930034724
1.9707209440603803
1.9736651422684819
1.9707236159505528
1.9725140095269913
1.9707220508604832
1.9714524342287867
1.9707206168697582
1.9709182681311053
1.9707202069330154
1.9707573179049596
1.9707201446077414
1.9707252572773324
1.9707201383478914
1.9707211883917846
1.9707201383478914
1.9707252572773324
1.9707201446077414
1.9707573179049596
1.9707202069330154
1.9709182681311053
1.9707206168697582
1.9714524342287867
1.9707220508604832
1.9725140095269913
1.9707236159505528
1.9736651422684819
1.9707209440603803
1.9745935930034724
1.9707105970893923
1.9770226300899743
1.9807024351960394
1.9851330308151971
1.9807092266616695
1.9836440612470103
1.9807111224932024
1.9822437910009132
1.980710127868796
1.9812653855378348
1.9807093124207655
1.9808470908694569
1.9807091006386355
1.9807333288849509
1.9807090707107013
1.9807122377530959
1.980709067865716
1.9807096913386533
1.980709067865716
1.9807122377530959
1.9807090707107013
1.9807333288849509
1.9807091006386355
1.9808470908694569
1.9807093124207655
1.9812653855378348
1.980710127868796
1.9822437910009132
1.9807111224932024
1.9836440612470103
1.9807092266616695
1.9851330308151971
1.9807024351960394
1.9875683491468141
1.9916373956414923
1.9925971601385892
1.9916424001737913
1.9924007283952132
1.991644290444522
1.9921371219082842
1.9916439234570265
1.991851840856492
1.9916435270837627
1.9917001809694903
1.9916434232725928
1.9916539771868391
1.9916434085561996
1.9916448395357647
1.9916434071602271
1.9916436953819976
1.9916434071602271
1.9916448395357647
1.9916434085561996
1.9916539771868391
1.9916434232725928
1.9917001809694903
1.9916435270837627
1.991851840856492
1.9916439234570265
1.9921371219082842
1.991644290444522
1.9924007283952132
1.9916424001737913
1.9925971601385892
1.9916373956414923
1.993307149075715
1.9921727475300026
1.9949575017327672
1.9921749977744088
1.993850023625062
1.9921757044548114
1.9929450818759615
1.9921754682863531
1.992423382274477
1.9921752891191298
1.9922312193404002
1.9921752482224675
1.9921843609354035
1.9921752430363076
1.992176361816357
1.9921752425852683
1.9921754518950376
1.9921752425852683
1.992176361816357
1.9921752430363076
1.9921843609354035
1.9921752482224675
1.9922312193404002
1.9921752891191298
1.992423382274477
1.9921754682863531
1.9929450818759615
1.9921757044548114
1.993850023625062
1.9921749977744088
1.9949575017327672
1.9921727475300026
1.9964063974185799
2.0001945585877778
1.9982904304002369
2.0002007803327064
1.9986581636702405
2.000203181268764
1.9993255331400759
2.0002024887672518
1.999891400837968
2.0002018398861812
2.0001303518914355
2.0002016747324936
2.00019032780461
2.0002016516070555
2.0002003315853973
2.0002016494052182
2.0002014191533739
2.0002016494052182
2.0002003315853973
2.0002016516070555
2.00019032780461
2.0002016747324936
2.0001303518914355
2.0002018398861812
1.999891400837968
2.0002024887672518
1.9993255331400759
2.000203181268764
1.9986581636702405
2.0002007803327064
1.9982904304002369
2.0001945585877778
1.9980732653366724
1.9969044670448715
1.9982349478736725
1.9969050114568061
1.9976411339671323
1.9969051612313302
1.9972195416338723
1.9969051313128252
1.9970026695488539
1.9969051185218414
1.9969268670313709
1.9969051184801638
1.9969086693432934
1.9969051189005393
1.9969055584386113
1.9969051189778571
1.9969052019986411
1.9969051189778571
1.9969055584386113
1.9969051189005393
1.9969086693432934
1.9969051184801638
1.9969268670313709
1.9969051185218414
1.9970026695488539
1.9969051313128252
1.9972195416338723
1.9969051612313302
1.9976411339671323
1.9969050114568061
1.9982349478736725
1.9969044670448715
1.9989677689632452
2.0041284488625903
2.0006244490606582
2.0041441623936738
2.001424891760113
2.0041470905581873
2.002370205489195
2.0041443481285666
2.0033837856133401
2.0041420551097544
2.0039327550187971
2.0041413988126719
2.0041022636468129
2.0041412980174207
2.0041359993905568
2.0041412877879816
2.0041402272358102
2.0041412877879816
2.0041359993905568
2.0041412980174207
2.0041022636468129
2.0041413988126719
2.0039327550187971
2.0041420551097544
2.0033837856133401
2.0041443481285666
2.002370205489195
2.0041470905581873
2.001424891760113
2.0041441623936738
2.0006244490606582
2.0041284488625903
1.9994472213630763
1.9989615374538734
1.9994539833454856
1.998961445567931
1.9992176243265571
1.9989614703197041
1.9990651919362887
1.9989614959445459
1.9989944244100677
1.9989615194682202
1.9989695940320025
1.9989615293945395
1.9989630318726581
1.9989615315580471
1.9989617456391433
1.9989615318495291
1.9989615779272667
1.9989615318495291
1.9989617456391433
1.9989615315580471
1.9989630318726581
1.9989615293945395
1.9989695940320025
1.9989615194682202
1.9989944244100677
1.9989614959445459
1.9990651919362887
1.9989614703197041
1.9992176243265571
1.998961445567931
1.9994539833454856
1.9989615374538734
1.999704042886487
2.0071095989282908
2.0023781647717107
2.0071424174398738
2.0038472803909979
2.0071384929880027
2.0050146334102759
2.0071318575448163
2.0061509674630504
2.0071275340583621
2.0068286161048476
2.0071262039490043
2.007064249146763
2.0071259769648431
2.007116715949627
2.0071259516690474
2.0071239250396933
2.0071259516690474
2.007116715949627
2.0071259769648431
2.007064249146763
2.0071262039490043
2.0068286161048476
2.0071275340583621
2.0061509674630504
2.0071318575448163
2.0050146334102759
2.0071384929880027
2.0038472803909979
2.0071424174398738
2.0023781647717107
2.0071095989282908
1.9998415637808975
1.9999151889582765
1.9999151889582765
1.9999151889582765
1.9999151889582765
1.9999151889582765
1.9999151889582765
1.9999151889582765
1.9999151889582765
1.9999151889582765
1.9999151889582765
1.9999151889582765
1.9999151889582765
1.9999151889582765
1.9999151889582765
1.9999151889582765
1.9999151889582765
1.9999151889582765
1.9999151889582765
1.9999151889582765
1.9999151889582765
1.9999151889582765
1.9999151889582765
1.9999151889582765
1.9999151889582765
1.9999151889582765
1.9999151889582765
1.9999151889582765
1.9999151889582765
1.9999151889582765
1.9999151889582765
1.9999151889582765
1.9999151889582765
1.0023786911301584
1.0010877960793108
1.0024007842144145
1.001521461075777
1.0024014299741628
1.0016858068840537
1.0023995805683543
1.0017226603351563
1.0023985037294174
1.0018773375339736
1.0023966094343066
1.0021264230167739
1.0023951332681205
1.0022962151161459
1.0023945947808961
1.0023474683702824
1.0023945947808961
1.0022962151161459
1.0023951332681205
1.0021264230167739
1.0023966094343066
1.0018773375339736
1.0023985037294174
1.0017226603351563
1.0023995805683543
1.0016858068840537
1.0024014299741628
1.001521461075777
1.0024007842144145
1.0010877960793108
1.0023786911301584
1.0000453978687025
0.9999826217686274
1.0000645332463363
0.99998248364360709
1.0000358496389037
0.99998245691479803
1.000012079584996
0.99998247121436057
0.99999589827793911
0.99998248436951043
0.9999874552209389
0.99998249285467566
0.99998403926030055
0.99998249745455947
0.99998291787541416
0.99998249907208814
0.99998267468226232
0.99998249907208814
0.99998291787541416
0.99998249745455947
0.99998403926030055
0.99998249285467566
0.9999874552209389
0.99998248436951043
0.99999589827793911
0.99998247121436057
1.000012079584996
0.99998245691479803
1.0000358496389037
0.99998248364360709
1.0000645332463363
0.9999826217686274
1.0000848110417238
1.001536132136299
1.0005492500395183
1.0015469923700973
1.0007598568186393
1.0015497824018309
1.0008785717512017
1.0015501379982876
1.000901594487013
1.0015498632607702
1.0010650253162527
1.0015483398677691
1.0013108885763098
1.0015471918671632
1.0014660676639442
1.0015468063139332
1.0015103923288404
1.0015468063139332
1.0014660676639442
1.0015471918671632
1.0013108885763098
1.0015483398677691
1.0010650253162527
1.0015498632607702
1.000901594487013
1.0015501379982876
1.0008785717512017
1.0015497824018309
1.0007598568186393
1.0015469923700973
1.0005492500395183
1.001536132136299
1.0001584362191025
1.0000832434853262
1.0002483205128538
1.0000832816769274
1.0001990787498345
1.0000832853214963
1.0001531610519518
1.0000832851153256
1.0001169166706785
1.000083282704441
1.0000958597221268
1.0000832830008257
1.000086976115909
1.0000832844734329
1.0000841713418871
1.0000832851816119
1.0000836092750427
1.0000832851816119
1.0000841713418871
1.0000832844734329
1.000086976115909
1.0000832830008257
1.0000958597221268
1.000083282704441
1.0001169166706785
1.0000832851153256
1.0001531610519518
1.0000832853214963
1.0001990787498345
1.0000832816769274
1.0002483205128538
1.0000832434853262
1.0002959571135133
1.00133062204282
1.0006625096446602
1.0013348568427693
1.0007495146896106
1.0013369029928318
1.0007205849658927
1.0013382086688107
1.000714823119452
1.0013380924127495
1.0009257499489961
1.0013370146342395
1.0011629934657111
1.0013363628740124
1.0012849072196646
1.0013361778959851
1.0013155578853052
1.0013361778959851
1.0012849072196646
1.0013363628740124
1.0011629934657111
1.0013370146342395
1.0009257499489961
1.0013380924127495
1.000714823119452
1.0013382086688107
1.0007205849658927
1.0013369029928318
1.0007495146896106
1.0013348568427693
1.0006625096446602
1.00133062204282
1.0005527786369237
1.0006960079702887
1.0009687615437355
1.0006960954660589
1.0008978460494742
1.0006961597972681
1.0008273416610789
1.0006961761641009
1.0007653269467336
1.000696164770384
1.0007242343207312
1.0006961559704222
1.0007048195285781
1.0006961535031156
1.0006982555352173
1.0006961531325309
1.0006969081351951
1.0006961531325309
1.0006982555352173
1.0006961535031156
1.0007048195285781
1.0006961559704222
1.0007242343207312
1.000696164770384
1.0007653269467336
1.0006961761641009
1.0008273416610789
1.0006961597972681
1.0008978460494742
1.0006960954660589
1.0009687615437355
1.0006960079702887
1.001032231036755
1.0024957226732771
1.0019116094589959
1.0024973052037467
1.0018841618530465
1.0024988236163679
1.0018525830346219
1.0024998647697805
1.0019930756073905
1.0024996902826568
1.0022417916111337
1.0024991800627494
1.0024115514019114
1.0024989435178053
1.0024774445827318
1.0024988868424178
1.002491438159806
1.0024988868424178
1.0024774445827318
1.0024989435178053
1.0024115514019114
1.0024991800627494
1.0022417916111337
1.0024996902826568
1.0019930756073905
1.0024998647697805
1.0018525830346219
1.0024988236163679
1.0018841618530465
1.0024973052037467
1.0019116094589959
1.0024957226732771
1.0019267346633276
1.0032051121801131
1.0035501433759504
1.0032052790189758
1.0034790438096641
1.0032054290245109
1.0034054109047053
1.0032054781999078
1.0033262262694387
1.0032054523580674
1.003260352322471
1.0032054251355795
1.0032237884903272
1.003205415175771
1.0032101223543139
1.003205413087521
1.0032071618231106
1.003205413087521
1.0032101223543139
1.003205415175771
1.0032237884903272
1.0032054251355795
1.003260352322471
1.0032054523580674
1.0033262262694387
1.0032054781999078
1.0034054109047053
1.0032054290245109
1.0034790438096641
1.0032052790189758
1.0035501433759504
1.0032051121801131
1.0035936025814203
1.0075663943524438
1.0068380217991928
1.0075672493167307
1.0069513855065977
1.0075683156128001
1.0071268311853674
1.0075688492710857
1.0073474942567469
1.0075687598102017
1.0074969267983975
1.0075685924781064
1.0075539259347872
1.007568526652068
1.0075668953691903
1.0075685123010165
1.0075685005314394
1.0075685123010165
1.0075668953691903
1.007568526652068
1.0075539259347872
1.0075685924781064
1.0074969267983975
1.0075687598102017
1.0073474942567469
1.0075688492710857
1.0071268311853674
1.0075683156128001
1.0069513855065977
1.0075672493167307
1.0068380217991928
1.0075663943524438
1.006692850924285
1.012096400567319
1.0124621003017873
1.0120967682916688
1.0124050258132611
1.0120970294218214
1.012350513407956
1.0120971153664005
1.012272245992623
1.0120970519772183
1.0121857638754084
1.0120969790766627
1.0121290650832522
1.0120969496674368
1.0121056690077879
1.0120969430226603
1.0121003141376024
1.0120969430226603
1.0121056690077879
1.0120969496674368
1.0121290650832522
1.0120969790766627
1.0121857638754084
1.0120970519772183
1.012272245992623
1.0120971153664005
1.012350513407956
1.0120970294218214
1.0124050258132611
1.0120967682916688
1.0124621003017873
1.012096400567319
1.0124316508531859
1.0237866065951007
1.0233175141511144
1.0237873844517782
1.0235061430700305
1.0237880186999684
1.0237101463562661
1.0237882590368268
1.0238347565663306
1.02378817453329
1.0238456644445766
1.0237880541138575
1.0238163691201019
1.0237880035074678
1.0237970033467816
1.023787991751179
1.023791771902655
1.023787991751179
1.0237970033467816
1.0237880035074678
1.0238163691201019
1.0237880541138575
1.0238456644445766
1.02378817453329
1.0238347565663306
1.0237882590368268
1.0237101463562661
1.0237880186999684
1.0235061430700305
1.0237873844517782
1.0233175141511144
1.0237866065951007
1.0229773699100257
1.0418640868348092
1.0422690730169126
1.0418650172582786
1.0421879510575887
1.0418653670851248
1.0421457009719599
1.0418654423127252
1.0420812357540534
1.0418653045745649
1.0419849945734514
1.0418651505642684
1.0419112401185116
1.0418650847957713
1.0418781603194105
1.0418650692235734
1.0418702603090586
1.0418650692235734
1.0418781603194105
1.0418650847957713
1.0419112401185116
1.0418651505642684
1.0419849945734514
1.0418653045745649
1.0420812357540534
1.0418654423127252
1.0421457009719599
1.0418653670851248
1.0421879510575887
1.0418650172582786
1.0422690730169126
1.0418640868348092
1.0420877279156189
1.0762639459960253
1.0763199157054628
1.0762655082664563
1.0763525734000974
1.0762658866935531
1.0764344186210133
1.0762659357867399
1.0764534969896196
1.0762657515876985
1.0763864464416197
1.0762655487254145
1.0763150781994588
1.0762654605881876
1.0762799210398657
1.0762654394512723
1.0762712449217124
1.0762654394512723
1.0762799210398657
1.0762654605881876
1.0763150781994588
1.0762655487254145
1.0763864464416197
1.0762657515876985
1.0764534969896196
1.0762659357867399
1.0764344186210133
1.0762658866935531
1.0763525734000974
1.0762655082664563
1.0763199157054628
1.0762639459960253
1.0758581800212434
1.1327829433071732
1.1333175522158043
1.1327854985436911
1.1331265922090699
1.1327856183695135
1.1330749801050737
1.1327855123401835
1.1330262941031097
1.1327852505238221
1.1329267990745564
1.1327849935838441
1.1328409307995861
1.1327848834728238
1.1328008079190188
1.1327848572436456
1.132791126597231
1.1327848572436456
1.1328008079190188
1.1327848834728238
1.1328409307995861
1.1327849935838441
1.1329267990745564
1.1327852505238221
1.1330262941031097
1.1327855123401835
1.1330749801050737
1.1327856183695135
1.1331265922090699
1.1327854985436911
1.1333175522158043
1.1327829433071732
1.1329642401978293
1.2224402947437323
1.2228831247724181
1.2224438537013596
1.2227005325605986
1.2224435699065628
1.2226966051052313
1.222443325682218
1.2226820390746291
1.2224430048865114
1.2225893458953332
1.2224427035062053
1.2225006476692319
1.2224425762996494
1.2224587887729121
1.2224425465309694
1.2224487828853658
1.2224425465309694
1.2224587887729121
1.2224425762996494
1.2225006476692319
1.2224427035062053
1.2225893458953332
1.2224430048865114
1.2226820390746291
1.222443325682218
1.2226966051052313
1.2224435699065628
1.2227005325605986
1.2224438537013596
1.2228831247724181
1.2224402947437323
1.2227001388253087
1.3472307747351451
1.3477169021671889
1.3472345278928877
1.3474984793698677
1.3472337874772207
1.3474940382990401
1.3472334602902856
1.3474832989839256
1.3472331058247178
1.3473843768229099
1.3472327783538678
1.3472909029571893
1.3472326442941236
1.3472482445730225
1.3472326139879716
1.3472383661104335
1.3472326139879716
1.3472482445730225
1.3472326442941236
1.3472909029571893
1.3472327783538678
1.3473843768229099
1.3472331058247178
1.3474832989839256
1.3472334602902856
1.3474940382990401
1.3472337874772207
1.3474984793698677
1.3472345278928877
1.3477169021671889
1.3472307747351451
1.3486451353339457
1.4969088092345164
1.4971502212807781
1.496911768155023
1.4970729631132138
1.4969108486618097
1.4971435740650865
1.4969105698851795
1.4971582762441438
1.4969102319253507
1.4970587541206404
1.4969099132299657
1.4969645881437488
1.4969097879513793
1.4969236223346662
1.4969097610006854
1.4969145667228145
1.4969097610006854
1.4969236223346662
1.4969097879513793
1.4969645881437488
1.4969099132299657
1.4970587541206404
1.4969102319253507
1.4971582762441438
1.4969105698851795
1.4971435740650865
1.4969108486618097
1.4970729631132138
1.496911768155023
1.4971502212807781
1.4969088092345164
1.5
1.6467717257106447
1.6468578136303
1.6467733535821758
1.6468884916991393
1.6467729187265785