# vtk DataFile Version 3.0
Euler density step 286
ASCII
DATASET STRUCTURED_POINTS
DIMENSIONS 32 32 32
ORIGIN 0 0 0
SPACING 0.3125 0.3125 0.3125
POINT_DATA 32768
SCALARS density double 1
LOOKUP_TABLE default
1.0055743561654258
1.0020001362606206
1.0055832644791292
1.0039576193471818
1.0055822659290905
1.0050925255330261
1.0055809104753535
1.0054867133291756
1.005580625172521
1.0055685522449056
1.0055805965002602
1.0055795107494485
1.0055805947160172
1.0055805230244967
1.0055805946400573
1.0055805874923729
1.0055805946400573
1.0055805230244967
1.0055805947160172
1.0055795107494485
1.0055805965002602
1.0055685522449056
1.005580625172521
1.0054867133291756
1.0055809104753535
1.0050925255330261
1.0055822659290905
1.0039576193471818
1.0055832644791292
1.0020001362606206
1.0055743561654258
1.0000453978687025
1.0000821869898857
1.0000861596709474
1.0000821742538344
1.0000841855174951
1.0000821733226031
1.0000828533588935
1.0000821746799249
1.0000823225591733
1.0000821750532385
1.0000821963100319
1.0000821750964894
1.0000821772184731
1.0000821750993252
1.0000821752535969
1.0000821750994375
1.0000821751162674
1.0000821750994375
1.0000821752535969
1.0000821750993252
1.0000821772184731
1.0000821750964894
1.0000821963100319
1.0000821750532385
1.0000823225591733
1.0000821746799249
1.0000828533588935
1.0000821733226031
1.0000841855174951
1.0000821742538344
1.0000861596709474
1.0000821869898857
1.0000848110417238
1.0047397056571883
1.0021075346846986
1.0047435537251823
1.0036624180538525
1.0047435400516616
1.0044639525489478
1.0047431671051015
1.0046970462011933
1.0047430957861299
1.0047379696549388
1.0047430895101617
1.0047426851864198
1.0047430891713092
1.004743065549726
1.0047430891593245
1.0047430870592595
1.0047430891593245
1.004743065549726
1.0047430891713092
1.0047426851864198
1.0047430895101617
1.0047379696549388
1.0047430957861299
1.0046970462011933
1.0047431671051015
1.0044639525489478
1.0047435400516616
1.0036624180538525
1.0047435537251823
1.0021075346846986
1.0047397056571883
1.0001584362191025
1.0002840097163903
1.0002911790109099
1.0002840112025213
1.0002869743936422
1.0002840105256998
1.0002848375188154
1.0002840105234156
1.0002841620295653
1.0002840105508426
1.0002840294035598
1.0002840105543038
1.000284012224266
1.0002840105544766
1.0002840106644975
1.0002840105544777
1.0002840105655686
1.0002840105544777
1.0002840106644975
1.0002840105544766
1.000284012224266
1.0002840105543038
1.0002840294035598
1.0002840105508426
1.0002841620295653
1.0002840105234156
1.0002848375188154
1.0002840105256998
1.0002869743936422
1.0002840112025213
1.0002911790109099
1.0002840097163903
1.0002959571135133
1.0028540161395858
1.0016631885622818
1.0028549245031146
1.0024506350102007
1.0028549920030785
1.0027694333010029
1.002854951539816
1.0028431936252844
1.0028549441090899
1.0028538345987088
1.0028549435226632
1.0028548681322016
1.0028549434958609
1.0028549396646487
1.002854943495197
1.0028549431969718
1.002854943495197
1.0028549396646487
1.0028549434958609
1.0028548681322016
1.0028549435226632
1.0028538345987088
1.0028549441090899
1.0028431936252844
1.002854951539816
1.0027694333010029
1.0028549920030785
1.0024506350102007
1.0028549245031146
1.0016631885622818
1.0028540161395858
1.0005527786369237
1.0009688042492761
1.0010028992350875
1.0009688060358255
1.0009808021198996
1.0009688060362683
1.000971610134278
1.0009688059744291
1.0009692496718476
1.0009688059656228
1.0009688554638796
1.0009688059649049
1.0009688100201446
1.0009688059648563
1.0009688062180051
1.0009688059648536
1.0009688059894994
1.0009688059648536
1.0009688062180051
1.0009688059648563
1.0009688100201446
1.0009688059649049
1.0009688554638796
1.0009688059656228
1.0009692496718476
1.0009688059744291
1.000971610134278
1.0009688060362683
1.0009808021198996
1.0009688060358255
1.0010028992350875
1.0009688042492761
1.001032231036755
1.0025231011238966
1.0022628886008029
1.0025232261105139
1.0024541336774591
1.0025232406488047
1.0025122650373792
1.0025232386816771
1.0025221630065893
1.0025232382661196
1.0025231740050369
1.0025232382363281
1.0025232363622238
1.0025232382353255
1.0025232382756104
1.0025232382353269
1.0025232382505653
1.0025232382353269
1.0025232382756104
1.0025232382353255
1.0025232363622238
1.0025232382363281
1.0025231740050369
1.0025232382661196
1.0025221630065893
1.0025232386816771
1.0025122650373792
1.0025232406488047
1.0024541336774591
1.0025232261105139
1.0022628886008029
1.0025231011238966
1.0019267346633276
1.0033989394421632
1.0035052109334848
1.0033989473535623
1.003436435294929
1.0033989478492686
1.0034077031301603
1.0033989474894072
1.0034003316195006
1.003398947421877
1.0033991018124016
1.0033989474161185
1.0033989600697328
1.003398947415802
1.0033989482061354
1.0033989474157878
1.0033989474927629
1.0033989474157878
1.0033989482061354
1.003398947415802
1.0033989600697328
1.0033989474161185
1.0033991018124016
1.003398947421877
1.0034003316195006
1.0033989474894072
1.0034077031301603
1.0033989478492686
1.003436435294929
1.0033989473535623
1.0035052109334848
1.0033989394421632
1.0035936025814203
1.0065124321607997
1.0066341980887084
1.0065124614030045
1.0065623888146409
1.0065124638175067
1.0065253692572373
1.0065124628070437
1.0065146341676754
1.0065124626077715
1.0065127142167001
1.0065124625908781
1.0065124837063775
1.0065124625899737
1.0065124639286576
1.0065124625899389
1.0065124627215465
1.0065124625899389
1.0065124639286576
1.0065124625899737
1.0065124837063775
1.0065124625908781
1.0065127142167001
1.0065124626077715
1.0065146341676754
1.0065124628070437
1.0065253692572373
1.0065124638175067
1.0065623888146409
1.0065124614030045
1.0066341980887084
1.0065124321607997
1.006692850924285
1.0119442712721165
1.0122224076410213
1.0119443183791998
1.0120453712783464
1.0119443196416271
1.0119685273971144
1.0119443167286299
1.011948215224119
1.0119443162028363
1.0119447565814039
1.0119443161578332
1.0119443525491636
1.0119443161553079
1.0119443184397492
1.0119443161552018
1.0119443163782893
1.0119443161552018
1.0119443184397492
1.0119443161553079
1.0119443525491636
1.0119443161578332
1.0119447565814039
1.0119443162028363
1.011948215224119
1.0119443167286299
1.0119685273971144
1.0119443196416271
1.0120453712783464
1.0119443183791998
1.0122224076410213
1.0119442712721165
1.0124316508531859
1.0222685019764799
1.0226883084850307
1.0222686078413328
1.0224243114285028
1.022268607873307
1.0223065041925059
1.0222686003024668
1.0222747648989141
1.0222685989674318
1.0222692992789217
1.0222685988532687
1.022268656876298
1.0222685988468208
1.022268602491025
1.0222685988465496
1.0222685992020777
1.0222685988465496
1.022268602491025
1.0222685988468208
1.022268656876298
1.0222685988532687
1.0222692992789217
1.0222685989674318
1.0222747648989141
1.0222686003024668
1.0223065041925059
1.022268607873307
1.0224243114285028
1.0222686078413328
1.0226883084850307
1.0222685019764799
1.0229773699100257
1.0410469729174823
1.0416753076135148
1.0410471964235082
1.0412813182924088
1.0410471884804515
1.0411044606188227
1.0410471700482722
1.041056508942553
1.0410471669005572
1.0410482273618902
1.0410471666331664
1.0410472542555518
1.0410471666180316
1.0410471720963557
1.0410471666173873
1.0410471671487376
1.0410471666173873
1.0410471720963557
1.0410471666180316
1.0410472542555518
1.0410471666331664
1.0410482273618902
1.0410471669005572
1.041056508942553
1.0410471700482722
1.0411044606188227
1.0410471884804515
1.0412813182924088
1.0410471964235082
1.0416753076135148
1.0410469729174823
1.0420877279156189
1.0744099240870164
1.0753058284940524
1.0744103705238921
1.0747459856110455
1.0744103354190773
1.0744926784274846
1.074410293952609
1.0744236918292662
1.0744102871432837
1.0744117986571702
1.0744102865726157
1.0744104102587535
1.0744102865404372
1.07441029418061
1.0744102865390666
1.0744102872699957
1.0744102865390666
1.07441029418061
1.0744102865404372
1.0744104102587535
1.0744102865726157
1.0744117986571702
1.0744102871432837
1.0744236918292662
1.074410293952609
1.0744926784274846
1.0744103354190773
1.0747459856110455
1.0744103705238921
1.0753058284940524
1.0744099240870164
1.0758581800212434
1.1309761179175257
1.1322147175721835
1.1309769556840716
1.1314402655018272
1.1309768461338683
1.1310899343295009
1.130976760154266
1.1309949438224738
1.1309767467367502
1.1309787629953716
1.1309767456394753
1.1309769071512017
1.1309767455784743
1.130976755314723
1.1309767455758994
1.1309767464829663
1.1309767455758994
1.130976755314723
1.1309767455784743
1.1309769071512017
1.1309767456394753
1.1309787629953716
1.1309767467367502
1.1309949438224738
1.130976760154266
1.1310899343295009
1.1309768461338683
1.1314402655018272
1.1309769556840716
1.1322147175721835
1.1309761179175257
1.1329642401978293
1.2199759767481606
1.2216282822776843
1.2199774253721318
1.220591939290145
1.2199771469068206
1.2201251154088766
1.219976984879066
1.2200002265394596
1.2199769611710105
1.2199794595159699
1.2199769593052019
1.2199771522046752
1.2199769592042931
1.2199769703602061
1.2199769592001255
1.2199769601938473
1.2199769592001255
1.2199769703602061
1.2199769592042931
1.2199771522046752
1.2199769593052019
1.2199794595159699
1.2199769611710105
1.2200002265394596
1.219976984879066
1.2201251154088766
1.2199771469068206
1.220591939290145
1.2199774253721318
1.2216282822776843
1.2199759767481606
1.2227001388253087
1.3449108939747723
1.3470119158959797
1.344913135056937
1.3456901382557209
1.3449125426874342
1.3450957974878359
1.3449122704547172
1.3449400404287708
1.3449122335704358
1.3449150807527488
1.3449122308227159
1.344912438717959
1.344912230680894
1.3449122419749904
1.3449122306752974
1.3449122316159468
1.3449122306752974
1.3449122419749904
1.344912230680894
1.344912438717959
1.3449122308227159
1.3449150807527488
1.3449122335704358
1.3449400404287708
1.3449122704547172
1.3450957974878359
1.3449125426874342
1.3456901382557209
1.344913135056937
1.3470119158959797
1.3449108939747723
1.3486451353339457
1.4950150322623132
1.4975281282612694
1.4950180752575681
1.4959433527785173
1.4950170411172774
1.4952286503015808
1.4950166492001926
1.4950471013942661
1.4950166009025343
1.4950195253587328
1.4950165975806542
1.4950167957852698
1.4950165974215361
1.4950166073525326
1.4950165974157112
1.4950165981756915
1.4950165974157112
1.4950166073525326
1.4950165974215361
1.4950167957852698
1.4950165975806542
1.4950195253587328
1.4950166009025343
1.4950471013942661
1.4950166492001926
1.4952286503015808
1.4950170411172774
1.4959433527785173
1.4950180752575681
1.4975281282612694
1.4950150322623132
1.5
1.6451990445584788
1.6480031018627026
1.6452025439048363
1.6462190194136301
1.6452011655605572
1.6454225616344711
1.6452007178821255
1.6452304924348833
1.645200668383187
1.6452033139905855
1.6452006652929001
1.6452008302788721
1.6452006651575926
1.6452006727381769
1.6452006651530522
1.6452006656842086
1.6452006651530522
1.6452006727381769
1.6452006651575926
1.6452008302788721
1.6452006652929001
1.6452033139905855
1.645200668383187
1.6452304924348833
1.6452007178821255
1.6454225616344711
1.6452011655605572
1.6462190194136301
1.6452025439048363
1.6480031018627026
1.6451990445584788
1.6513548646660543
1.7705659347289988
1.7734484014228677
1.7705692366839418
1.7715736172022145
1.7705678957638979
1.7707727926290413
1.7705675068038111
1.7705930802909433
1.7705674679938899
1.7705695703441249
1.770567465783381
1.7705675869563293
1.7705674656942998
1.7705674708374137
1.7705674656915376
1.7705674660244799
1.7705674656915376
1.7705674708374137
1.7705674656942998
1.7705675869563293
1.770567465783381
1.7705695703441249
1.7705674679938899
1.7705930802909433
1.7705675068038111
1.7707727926290413
1.7705678957638979
1.7715736172022145
1.7705692366839418
1.7734484014228677
1.7705659347289988
1.7772998611746911
1.8605802054269807
1.8632665321342936
1.8605827875284091
1.8614644673686351
1.8605818095075033
1.86074930418873
1.8605815464449345
1.8606010227319196
1.8605815223352213
1.8605830175382594
1.8605815210619463
1.8605816017118131
1.8605815210140073
1.8605815242222152
1.8605815210126122
1.8605815212074905
1.8605815210126122
1.8605815242222152
1.8605815210140073
1.8605816017118131
1.8605815210619463
1.8605830175382594
1.8605815223352213
1.8606010227319196
1.8605815464449345
1.86074930418873
1.8605818095075033
1.8614644673686351
1.8605827875284091
1.8632665321342936
1.8605802054269807
1.8670357598021707
1.9186567611628587
1.9209068678132721
1.9186584684966141
1.919349651736113
1.9186579037695926
1.9187807517310036
1.9186577587841476
1.9186712048932646
1.9186577463449896
1.9186587231986141
1.9186577457254694
1.918657795781177
1.9186577457033447
1.9186577475999571
1.918657745702733
1.9186577458126841
1.918657745702733
1.9186577475999571
1.9186577457033447
1.918657795781177
1.9186577457254694
1.9186587231986141
1.9186577463449896
1.9186712048932646
1.9186577587841476
1.9187807517310036
1.9186579037695926
1.919349651736113
1.9186584684966141
1.9209068678132721
1.9186567611628587
1.9241418199787566
1.9537022643903998
1.9554062628050215
1.9537032349392129
1.954195117643202
1.9537029636677119
1.9537855734902143
1.9537028956898075
1.9537115113344445
1.9537028901374558
1.9537034903911854
1.9537028898727906
1.9537029195030315
1.9537028898637112
1.9537028909486267
1.9537028898634703
1.9537028899243885
1.9537028898634703
1.9537028909486267
1.9537028898637112
1.9537029195030315
1.9537028898727906
1.9537034903911854
1.9537028901374558
1.9537115113344445
1.9537028956898075
1.9537855734902143
1.9537029636677119
1.954195117643202
1.9537032349392129
1.9554062628050215
1.9537022643903998
1.9579122720843811
1.9740842883673053
1.9752593190549037
1.9740847709924758
1.9744075188954364
1.9740846584112657
1.9741365444530872
1.9740846303400594
1.9740898506525921
1.9740846281254285
1.9740849810720578
1.974084628023161
1.9740846450017737
1.9740846280197539
1.9740846286273903
1.9740846280196669
1.974084628053089
1.9740846280196669
1.9740846286273903
1.9740846280197539
1.9740846450017737
1.974084628023161
1.9740849810720578
1.9740846281254285
1.9740898506525921
1.9740846303400594
1.9741365444530872
1.9740846584112657
1.9744075188954364
1.9740847709924758
1.9752593190549037
1.9740842883673053
1.9770226300899743
1.9856167202987138
1.9863825874619421
1.9856169348060908
1.985817863146131
1.9856168927366808
1.9856480374231902
1.9856168821952169
1.9856199296310022
1.9856168813844799
1.9856170829653699
1.9856168813479083
1.9856168908735663
1.9856168813467185
1.9856168816825193
1.9856168813466868
1.9856168813649171
1.9856168813466868
1.9856168816825193
1.9856168813467185
1.9856168908735663
1.9856168813479083
1.9856170829653699
1.9856168813844799
1.9856199296310022
1.9856168821952169
1.9856480374231902
1.9856168927366808
1.985817863146131
1.9856169348060908
1.9863825874619421
1.9856167202987138
1.9875683491468141
1.9923533586648365
1.9927397557832258
1.9923534544269808
1.9924585041341276
1.9923534415063979
1.9923700195031442
1.9923534378694343
1.9923550721715955
1.992353437585336
1.9923535459208748
1.9923534375725074
1.9923534426887317
1.9923534375720908
1.9923534377520824
1.9923534375720811
1.9923534375818261
1.9923534375720811
1.9923534377520824
1.9923534375720908
1.9923534426887317
1.9923534375725074
1.9923535459208748
1.992353437585336
1.9923550721715955
1.9923534378694343
1.9923700195031442
1.9923534415063979
1.9924585041341276
1.9923534544269808
1.9927397557832258
1.9923533586648365
1.993307149075715
1.9956782704190967
1.995957344345656
1.9956783024479126
1.9957473919257316
1.9956782977779062
1.9956885329472462
1.9956782965762474
1.9956792650907655
1.9956782964869109
1.9956783589563143
1.9956782964830166
1.9956782993775537
1.9956782964828932
1.995678296583328
1.9956782964828896
1.9956782964882707
1.9956782964828896
1.995678296583328
1.9956782964828932
1.9956782993775537
1.9956782964830166
1.9956783589563143
1.9956782964869109
1.9956792650907655
1.9956782965762474
1.9956885329472462
1.9956782977779062
1.9957473919257316
1.9956783024479126
1.995957344345656
1.9956782704190967
1.9964063974185799
1.9990627288530942
1.9986802621362447
1.99906291428834
1.9989884083432115
1.9990629074443482
1.9990548320614354
1.9990629033239482
1.9990623721034322
1.9990629029589215
1.9990628806284707
1.9990629029409275
1.9990629023425031
1.9990629029403195
1.9990629029315741
1.9990629029403042
1.999062902940351
1.9990629029403042
1.9990629029315741
1.9990629029403195
1.9990629023425031
1.9990629029409275
1.9990628806284707
1.9990629029589215
1.9990623721034322
1.9990629033239482
1.9990548320614354
1.9990629074443482
1.9989884083432115
1.99906291428834
1.9986802621362447
1.9990627288530942
1.9980732653366724
1.9987259294050761
1.9988219412776409
1.9987259314186925
1.9987498062446554
1.9987259314124948
1.9987294675604292
1.9987259314832686
1.9987262648022575
1.9987259314950014
1.9987259528658086
1.9987259314958177
1.9987259324790887
1.9987259314958512
1.9987259315297163
1.9987259314958521
1.9987259314976529
1.9987259314958521
1.9987259315297163
1.9987259314958512
1.9987259324790887
1.9987259314958177
1.9987259528658086
1.9987259314950014
1.9987262648022575
1.9987259314832686
1.9987294675604292
1.9987259314124948
1.9987498062446554
1.9987259314186925
1.9988219412776409
1.9987259294050761
1.9989677689632452
2.0033557661941757
2.0015139857607962
2.0033571673706581
2.0028652927284742
2.0033569139697951
2.0032828583146305
2.0033568421443513
2.0033499641736405
2.0033568362472449
2.0033564088264333
2.0033568359638143
2.0033568170719236
2.0033568359540941
2.003356835332196
2.0033568359538405
2.0033568359223235
2.0033568359538405
2.003356835332196
2.0033568359540941
2.0033568170719236
2.0033568359638143
2.0033564088264333
2.0033568362472449
2.0033499641736405
2.0033568421443513
2.0032828583146305
2.0033569139697951
2.0028652927284742
2.0033571673706581
2.0015139857607962
2.0033557661941757
1.9994472213630763
1.999645002203172
1.9996771545570124
1.9996449934222791
1.999655249769309
1.9996449972506007
1.9996468695553546
1.9996449986010909
1.9996452063797505
1.9996449987510496
1.9996450138837907
1.9996449987601757
1.9996449995306207
1.9996449987605458
1.9996449987893485
1.9996449987605569
1.9996449987621951
1.9996449987605569
1.9996449987893485
1.9996449987605458
1.9996449995306207
1.9996449987601757
1.9996450138837907
1.9996449987510496
1.9996452063797505
1.9996449986010909
1.9996468695553546
1.9996449972506007
1.999655249769309
1.9996449934222791
1.9996771545570124
1.999645002203172
1.999704042886487
2.006102511550659
2.0029188700873086
2.0061070585897336
2.0050472457840365
2.0061049008985812
2.0059069875341833
2.0061043959665645
2.0060822370036226
2.0061043524886024
2.0061027332026975
2.0061043503013698
2.0061042677382219
2.0061043502231639
2.0061043471336308
2.0061043502210216
2.0061043500451525
2.0061043502210216
2.0061043471336308
2.0061043502231639
2.0061042677382219
2.0061043503013698
2.0061027332026975
2.0061043524886024
2.0060822370036226
2.0061043959665645
2.0059069875341833
2.0061049008985812
2.0050472457840365
2.0061070585897336
2.0029188700873086
2.006102511550659
1.9998415637808975
1.9999151889582765
1.9999151889582765
1.9999151889582765
1.9999151889582765
1.9999151889582765
1.9999151889582765
1.9999151889582765
1.9999151889582765
1.9999151889582765
1.9999151889582765
1.9999151889582765
1.9999151889582765
1.9999151889582765
1.9999151889582765
1.9999151889582765
1.9999151889582765
1.9999151889582765
1.9999151889582765
1.9999151889582765
1.9999151889582765
1.9999151889582765
1.9999151889582765
1.9999151889582765
1.9999151889582765
1.9999151889582765
1.9999151889582765
1.9999151889582765
1.9999151889582765
1.9999151889582765
1.9999151889582765
1.9999151889582765
1.9999151889582765
1.0044426831012776
1.0023839362071656
1.0044518048323856
1.0032867620647115
1.0044500692718612
1.0039949106493515
1.0044482545363185
1.004338425661861
1.0044477743989899
1.0044306553192976
1.0044477114176633
1.0044458750940715
1.0044477061883275
1.0044475629401928
1.0044477058757797
1.0044476890980769
1.0044477058757797
1.0044475629401928
1.0044477061883275
1.0044458750940715
1.0044477114176633
1.0044306553192976
1.0044477743989899
1.004338425661861
1.0044482545363185
1.0039949106493515
1.0044500692718612
1.0032867620647115
1.0044518048323856
1.0023839362071656
1.0044426831012776
1.0000453978687025
1.0000827025524335
1.0000851800728066
1.0000826904830509
1.0000837274847809
1.0000826888402321
1.0000830150701849
1.000082690233147
1.0000827756554995
1.0000826907446514
1.0000827067484486
1.0000826908253346
1.0000826928876096
1.0000826908330005
1.0000826910217553
1.0000826908335063
1.0000826908587572
1.0000826908335063
1.0000826910217553
1.0000826908330005
1.0000826928876096
1.0000826908253346
1.0000827067484486
1.0000826907446514
1.0000827756554995
1.000082690233147
1.0000830150701849
1.0000826888402321
1.0000837274847809
1.0000826904830509
1.0000851800728066
1.0000827025524335
1.0000848110417238
1.0027995776633589
1.0010537093698744
1.0028037309593498
1.0018818819862307
1.0028036634579915
1.002499333952604
1.0028030700705326
1.0027410726159187
1.0028029214538232
1.0027946145309272
1.0028029039136563
1.002802124720664
1.0028029025846221
1.0028028487216394
1.0028029025111187
1.0028028968518148
1.0028029025111187
1.0028028487216394
1.0028029025846221
1.002802124720664
1.0028029039136563
1.0027946145309272
1.0028029214538232
1.0027410726159187
1.0028030700705326
1.002499333952604
1.0028036634579915
1.0018818819862307
1.0028037309593498
1.0010537093698744
1.0027995776633589
1.0001584362191025
1.0002921061416676
1.0002947112637726
1.0002921137815977
1.000293198782682
1.0002921122047475
1.000292505121255
1.0002921116213954
1.0002922104294256
1.0002921115741339
1.0002921277632599
1.0002921115750822
1.0002921133756366
1.0002921115755368
1.0002921117192007
1.0002921115755801
1.0002921115926258
1.0002921115755801
1.0002921117192007
1.0002921115755368
1.0002921133756366
1.0002921115750822
1.0002921277632599
1.0002921115741339
1.0002922104294256
1.0002921116213954
1.000292505121255
1.0002921122047475
1.000293198782682
1.0002921137815977
1.0002947112637726
1.0002921061416676
1.0002959571135133
1.002286916641538
1.0012436976568744
1.0022880354059169
1.0018504336157497
1.0022881171663944
1.0021743261706348
1.0022880291921423
1.0022691469395677
1.0022880081917391
1.0022858824569651
1.002288005883579
1.0022878344134358
1.0022880057189778
1.0022879953540382
1.0022880057104002
1.0022880047446303
1.0022880057104002
1.0022879953540382
1.0022880057189778
1.0022878344134358
1.002288005883579
1.0022858824569651
1.0022880081917391
1.0022691469395677
1.0022880291921423
1.0021743261706348
1.0022881171663944
1.0018504336157497
1.0022880354059169
1.0012436976568744
1.002286916641538
1.0005527786369237
1.0009848382971975
1.0010127375418687
1.0009848424041381
1.000995985031
1.0009848423657444
1.0009878614090451
1.0009848421536633
1.0009853928520216
1.0009848421190783
1.0009849120262047
1.0009848421163097
1.0009848485474768
1.000984842116172
1.0009848425618582
1.0009848421161698
1.0009848421638121
1.0009848421161698
1.0009848425618582
1.000984842116172
1.0009848485474768
1.0009848421163097
1.0009849120262047
1.0009848421190783
1.0009853928520216
1.0009848421536633
1.0009878614090451
1.0009848423657444
1.000995985031
1.0009848424041381
1.0010127375418687
1.0009848382971975
1.001032231036755
1.0025361837364197
1.0022285878488606
1.0025363721474232
1.0024363461305386
1.0025363950403534
1.0025165152375817
1.0025363882706946
1.0025338683526375
1.00253638653176
1.0025361730700844
1.0025363863436598
1.0025363739415956
1.0025363863307017
1.0025363858432592
1.0025363863300587
1.0025363863074688
1.0025363863300587
1.0025363858432592
1.0025363863307017
1.0025363739415956
1.0025363863436598
1.0025361730700844
1.00253638653176
1.0025338683526375
1.0025363882706946
1.0025165152375817
1.0025363950403534
1.0024363461305386
1.0025363721474232
1.0022285878488606
1.0025361837364197
1.0019267346633276
1.0034452628872097
1.0035347964859793
1.0034452730429144
1.0034813314131816
1.0034452734625188
1.0034550043430341
1.0034452728045402
1.0034470345396092
1.0034452726630287
1.0034454948090059
1.003445272648573
1.0034452929834556
1.0034452726476026
1.0034452740519677
1.003445272647554
1.0034452727973384
1.003445272647554
1.0034452740519677
1.0034452726476026
1.0034452929834556
1.003445272648573
1.0034454948090059
1.0034452726630287
1.0034470345396092
1.0034452728045402
1.0034550043430341
1.0034452734625188
1.0034813314131816
1.0034452730429144
1.0035347964859793
1.0034452628872097
1.0035936025814203
1.0066287494715749
1.0066970295640465
1.0066287910722544
1.0066666013576673
1.0066287945768742
1.0066412078368105
1.0066287926468209
1.0066313063024444
1.0066287921899464
1.0066291306700037
1.0066287921416965
1.0066288243938708
1.0066287921384185
1.0066287944231422
1.0066287921382537
1.006628792385954
1.0066287921382537
1.0066287944231422
1.0066287921384185
1.0066288243938708
1.0066287921416965
1.0066291306700037
1.0066287921899464
1.0066313063024444
1.0066287926468209
1.0066412078368105
1.0066287945768742
1.0066666013576673
1.0066287910722544
1.0066970295640465
1.0066287494715749
1.006692850924285
1.0120999136492881
1.0123133694791138
1.0120999652789464
1.0121898825508686
1.0120999648993729
1.0121252268086101
1.0120999603441332
1.0121046682138761
1.0120999593914506
1.0121005647199994
1.0120999592936912
1.0121000154150748
1.0120999592870701
1.0120999631941472
1.0120999592867375
1.0120999597053919
1.0120999592867375
1.0120999631941472
1.0120999592870701
1.0121000154150748
1.0120999592936912
1.0121005647199994
1.0120999593914506
1.0121046682138761
1.0120999603441332
1.0121252268086101
1.0120999648993729
1.0121898825508686
1.0120999652789464
1.0123133694791138
1.0120999136492881
1.0124316508531859
1.0225429786082625
1.022839987353217
1.0225430870487726
1.0226731004807597
1.0225430826741915
1.0225807340997348
1.0225430717943702
1.0225502225011329
1.0225430695598348
1.0225439989155534
1.0225430693309576
1.0225431559631055
1.022543069315452
1.0225430753582931
1.0225430693146691
1.0225430699619034
1.0225430693146691
1.0225430753582931
1.022543069315452
1.0225431559631055
1.0225430693309576
1.0225439989155534
1.0225430695598348
1.0225502225011329
1.0225430717943702
1.0225807340997348
1.0225430826741915
1.0226731004807597
1.0225430870487726
1.022839987353217
1.0225429786082625
1.0229773699100257
1.0414734577436753
1.0418958490906645
1.0414736679217249
1.0416594381895008
1.0414736494024814
1.0415280000967884
1.0414736252321373
1.0414840154076068
1.0414736204148847
1.0414749734473909
1.0414736199256847
1.0414737458271031
1.0414736198926839
1.0414736286339807
1.0414736198910186
1.0414736208210491
1.0414736198910186
1.0414736286339807
1.0414736198926839
1.0414737458271031
1.0414736199256847
1.0414749734473909
1.0414736204148847
1.0414840154076068
1.0414736252321373
1.0415280000967884
1.0414736494024814
1.0416594381895008
1.0414736679217249
1.0418958490906645
1.0414734577436753
1.0420877279156189
1.0750442705028915
1.0756020051084934
1.075044653735918
1.0752932705415463
1.0750445993058906
1.0751183110669167
1.0750445502115262
1.0750586976230616
1.0750445407634739
1.0750463759512525
1.0750445398177499
1.0750447089894297
1.0750445397546153
1.0750445513448172
1.0750445397514661
1.0750445409651248
1.0750445397514661
1.0750445513448172
1.0750445397546153
1.0750447089894297
1.0750445398177499
1.0750463759512525
1.0750445407634739
1.0750586976230616
1.0750445502115262
1.0751183110669167
1.0750445993058906
1.0752932705415463
1.075044653735918
1.0756020051084934
1.0750442705028915
1.0758581800212434
1.1318419059357447
1.1325524648029082
1.1318425490697901
1.1321610884965088
1.1318424170481849
1.1319372281603559
1.1318423264821722
1.1318603851490654
1.1318423098430841
1.1318446134028899
1.1318423082201969
1.1318425156931127
1.1318423081141429
1.1318423219357672
1.1318423081089566
1.1318423095117616
1.1318423081089566
1.1318423219357672
1.1318423081141429
1.1318425156931127
1.1318423082201969
1.1318446134028899
1.1318423098430841
1.1318603851490654
1.1318423264821722
1.1319372281603559
1.1318424170481849
1.1321610884965088
1.1318425490697901
1.1325524648029082
1.1318419059357447
1.1329642401978293
1.2210646159052803
1.2219281022297095
1.2210655806491679
1.2214543781533445
1.2210653132173752
1.2211804219627236
1.2210651645988648
1.221086616494508
1.2210651388154066
1.2210677834612873
1.2210651363991469
1.2210653646059986
1.2210651362469056
1.2210651507167178
1.2210651362397416
1.2210651376314627
1.2210651362397416
1.2210651507167178
1.2210651362469056
1.2210653646059986
1.2210651363991469
1.2210677834612873
1.2210651388154066
1.221086616494508
1.2210651645988648
1.2211804219627236
1.2210653132173752
1.2214543781533445
1.2210655806491679
1.2219281022297095
1.2210646159052803
1.2227001388253087
1.3462154280568142
1.3472051610659259
1.3462166936088646
1.3466675007136444
1.3462162457536548
1.3463475587816638
1.3462160336976821
1.3462394909904749
1.3462159994772844
1.3462187261007947
1.3462159964679401
1.346216216025363
1.3462159962899651
1.3462160091912139
1.3462159962821323
1.3462159974276782
1.3462159962821323
1.3462160091912139
1.3462159962899651
1.346216216025363
1.3462159964679401
1.3462187261007947
1.3462159994772844
1.3462394909904749
1.3462160336976821
1.3463475587816638
1.3462162457536548
1.3466675007136444
1.3462166936088646
1.3472051610659259
1.3462154280568142
1.3486451353339457
1.4966401463740457
1.4977195800072953
1.4966415765794705
1.4971379266452567
1.4966409843093442
1.4967792402058455
1.4966407368594448
1.4966636817406951
1.4966407006736082
1.4966431461414014
1.4966406977763616
1.4966408772160886
1.4966406976199054
1.496640707196947
1.4966406976136188
1.4966406983854732
1.4966406976136188
1.496640707196947
1.4966406976199054
1.4966408772160886
1.4966406977763616
1.4966431461414014
1.4966407006736082
1.4966636817406951
1.4966407368594448
1.4967792402058455
1.4966409843093442
1.4971379266452567
1.4966415765794705
1.4977195800072953
1.4966401463740457
1.5
1.6473517526398405
1.6484903134787943
1.6473530894452533
1.647859423158488
1.6473525195383767
1.6474818592777034
1.6473523032996409
1.6473717265209078
1.6473522749780507