# vtk DataFile Version 3.0
Euler density step 436
ASCII
DATASET STRUCTURED_POINTS
DIMENSIONS 32 32 32
ORIGIN 0 0 0
SPACING 0.3125 0.3125 0.3125
POINT_DATA 32768
SCALARS density double 1
LOOKUP_TABLE default
1.0082659070923918
1.0019914275450963
1.0082909839493015
1.0040813041356076
1.0082980661897594
1.0056621505439869
1.0082963496881339
1.0069802224402957
1.0082918386210611
1.0078212335314916
1.0082894658627961
1.0081703353771543
1.0082888645668209
1.0082666150933399
1.0082887719540854
1.0082827125669562
1.0082887719540854
1.0082666150933399
1.0082888645668209
1.0081703353771543
1.0082894658627961
1.0078212335314916
1.0082918386210611
1.0069802224402957
1.0082963496881339
1.0056621505439869
1.0082980661897594
1.0040813041356076
1.0082909839493015
1.0019914275450963
1.0082659070923918
1.0000453978687025
1.0000025083879716
1.0000594811471126
1.0000024189843484
1.0000333323403907
1.0000023917578358
1.0000162429153043
1.0000023958041364
1.0000076495430357
1.0000024061261319
1.0000040506303229
1.0000024119358051
1.0000028153495781
1.0000024136203483
1.0000024904650602
1.0000024139182819
1.0000024356468176
1.0000024139182819
1.0000024904650602
1.0000024136203483
1.0000028153495781
1.0000024119358051
1.0000040506303229
1.0000024061261319
1.0000076495430357
1.0000023958041364
1.0000162429153043
1.0000023917578358
1.0000333323403907
1.0000024189843484
1.0000594811471126
1.0000025083879716
1.0000848110417238
1.007585301944246
1.0022186106255317
1.0075992770833004
1.0038891556215404
1.0076063673787583
1.0052872409152984
1.0076060528998472
1.0065042226890737
1.0076031157116736
1.007238003688482
1.0076016759090647
1.0075166960271595
1.0076013486188733
1.0075867887161802
1.0076013031293272
1.0075976404336442
1.0076013031293272
1.0075867887161802
1.0076013486188733
1.0075166960271595
1.0076016759090647
1.007238003688482
1.0076031157116736
1.0065042226890737
1.0076060528998472
1.0052872409152984
1.0076063673787583
1.0038891556215404
1.0075992770833004
1.0022186106255317
1.007585301944246
1.0001584362191025
1.0000658239255364
1.0002157817384252
1.0000658272272813
1.0001471503878547
1.0000658118837695
1.0001011456339099
1.0000658048074864
1.0000778886666624
1.0000658071001005
1.0000690172459996
1.0000658095035657
1.0000664669059189
1.0000658102306603
1.0000659155808287
1.0000658103522735
1.0000658361303421
1.0000658103522735
1.0000659155808287
1.0000658102306603
1.0000664669059189
1.0000658095035657
1.0000690172459996
1.0000658071001005
1.0000778886666624
1.0000658048074864
1.0001011456339099
1.0000658118837695
1.0001471503878547
1.0000658272272813
1.0002157817384252
1.0000658239255364
1.0002959571135133
1.0062982235610272
1.0020204991158568
1.006304700213575
1.0033388518028392
1.0063092453594484
1.004608733332635
1.0063093006871275
1.0056102239513329
1.0063081014047421
1.0061090724252786
1.0063076048834332
1.0062673723896531
1.0063075077628851
1.0063014574146263
1.0063074957666183
1.0063061376624483
1.0063074957666183
1.0063014574146263
1.0063075077628851
1.0062673723896531
1.0063076048834332
1.0061090724252786
1.0063081014047421
1.0056102239513329
1.0063093006871275
1.004608733332635
1.0063092453594484
1.0033388518028392
1.006304700213575
1.0020204991158568
1.0062982235610272
1.0005527786369237
1.0004990567621632
1.0008525322856416
1.0004991264595593
1.0006960705955104
1.0004991545529365
1.0005866293778349
1.0004991510755372
1.0005287332954373
1.0004991471405229
1.0005066494016297
1.0004991463021427
1.000500584387775
1.0004991462231347
1.0004993606323918
1.0004991462203954
1.000499195409293
1.0004991462203954
1.0004993606323918
1.0004991462231347
1.000500584387775
1.0004991463021427
1.0005066494016297
1.0004991471405229
1.0005287332954373
1.0004991510755372
1.0005866293778349
1.0004991545529365
1.0006960705955104
1.0004991264595593
1.0008525322856416
1.0004990567621632
1.001032231036755
1.0056511744374756
1.0029870392000275
1.005653887252935
1.0039831915116173
1.0056558283092318
1.0048532392488321
1.0056559519961548
1.0053852314270784
1.0056556902659097
1.005591835800699
1.005655594012715
1.0056447528121033
1.005655577062355
1.0056541982326959
1.0056555751357781
1.0056553109067912
1.0056555751357781
1.0056541982326959
1.005655577062355
1.0056447528121033
1.005655594012715
1.005591835800699
1.0056556902659097
1.0053852314270784
1.0056559519961548
1.0048532392488321
1.0056558283092318
1.0039831915116173
1.005653887252935
1.0029870392000275
1.0056511744374756
1.0019267346633276
1.0025059256570792
1.0032526150089911
1.0025061350423532
1.0029428878931843
1.0025062507672282
1.0027111691909447
1.0025062495500554
1.0025786868552973
1.0025062329102739
1.002525172841644
1.0025062274462317
1.0025099335298999
1.002506226530574
1.0025067874698979
1.0025062264292643
1.0025063566331873
1.0025062264292643
1.0025067874698979
1.002506226530574
1.0025099335298999
1.0025062274462317
1.002525172841644
1.0025062329102739
1.0025786868552973
1.0025062495500554
1.0027111691909447
1.0025062507672282
1.0029428878931843
1.0025061350423532
1.0032526150089911
1.0025059256570792
1.0035936025814203
1.0076307264431981
1.0070828235397506
1.0076318120616663
1.0074011495577269
1.0076324979005018
1.0075922781238726
1.0076325637526722
1.0076446880447192
1.0076325098361718
1.0076417993959244
1.0076324892566273
1.0076352789851657
1.0076324856129018
1.0076330248415031
1.0076324852011378
1.0076326307518031
1.0076324852011378
1.0076330248415031
1.0076324856129018
1.0076352789851657
1.0076324892566273
1.0076417993959244
1.0076325098361718
1.0076446880447192
1.0076325637526722
1.0075922781238726
1.0076324979005018
1.0074011495577269
1.0076318120616663
1.0070828235397506
1.0076307264431981
1.006692850924285
1.0105425711389171
1.0118869738097909
1.0105432090898492
1.0113633078892856
1.0105435539891139
1.0109498083798076
1.0105435265942841
1.0106947277780076
1.0105434537506002
1.0105846977594612
1.0105434293437061
1.0105517729315907
1.0105434251142331
1.0105447217513235
1.0105434246323792
1.0105437317264439
1.0105434246323792
1.0105447217513235
1.0105434251142331
1.0105517729315907
1.0105434293437061
1.0105846977594612
1.0105434537506002
1.0106947277780076
1.0105435265942841
1.0109498083798076
1.0105435539891139
1.0113633078892856
1.0105432090898492
1.0118869738097909
1.0105425711389171
1.0124316508531859
1.0214784952363898
1.0226702404581232
1.0214796796967509
1.0222962879918502
1.0214802939308241
1.0219353060535703
1.0214802424308851
1.0216650088110855
1.0214801070299924
1.0215334807902283
1.0214800605322867
1.0214912644160397
1.0214800523122849
1.021481836359365
1.0214800513630329
1.0214804805517712
1.0214800513630329
1.021481836359365
1.0214800523122849
1.0214912644160397
1.0214800605322867
1.0215334807902283
1.0214801070299924
1.0216650088110855
1.0214802424308851
1.0219353060535703
1.0214802939308241
1.0222962879918502
1.0214796796967509
1.0226702404581232
1.0214784952363898
1.0229773699100257
1.0392063367063469
1.0413303854477176
1.0392081697974971
1.0405342284475358
1.0392089767920947
1.0398939046028211
1.0392088000270612
1.0394745075573848
1.0392085469560193
1.0392833803958765
1.0392084633450551
1.0392239410008097
1.0392084487033768
1.0392108890637137
1.039208447014236
1.0392090299262182
1.039208447014236
1.0392108890637137
1.0392084487033768
1.0392239410008097
1.0392084633450551
1.0392833803958765
1.0392085469560193
1.0394745075573848
1.0392088000270612
1.0398939046028211
1.0392089767920947
1.0405342284475358
1.0392081697974971
1.0413303854477176
1.0392063367063469
1.0420877279156189
1.0725927061285809
1.0750806817262042
1.0725957809497713
1.0741732459698838
1.0725968805849753
1.0734320084382931
1.072596509554449
1.0729266841931699
1.0725960815695366
1.0726899868032354
1.072595943150904
1.0726154142645459
1.0725959190727279
1.0725989808809526
1.0725959163050915
1.0725966435151411
1.0725959163050915
1.0725989808809526
1.0725959190727279
1.0726154142645459
1.072595943150904
1.0726899868032354
1.0725960815695366
1.0729266841931699
1.072596509554449
1.0734320084382931
1.0725968805849753
1.0741732459698838
1.0725957809497713
1.0750806817262042
1.0725927061285809
1.0758581800212434
1.1287688508986149
1.1319443843287946
1.128774008862282
1.130737218215121
1.1287753292342535
1.1298053346550627
1.1287745906500828
1.1291798426807684
1.1287739021682603
1.1288882516484724
1.1287736883518262
1.1287971105594024
1.1287736519525311
1.128777275573819
1.1287736478329438
1.1287744930366124
1.1287736478329438
1.128777275573819
1.1287736519525311
1.1287971105594024
1.1287736883518262
1.1288882516484724
1.1287739021682603
1.1291798426807684
1.1287745906500828
1.1298053346550627
1.1287753292342535
1.130737218215121
1.128774008862282
1.1319443843287946
1.1287688508986149
1.1329642401978293
1.2176549984982599
1.2214473090706019
1.2176632815598349
1.2199872970920582
1.2176645716256667
1.2188880789137109
1.2176632364624558
1.2181430681758747
1.2176621970176553
1.2177957213107939
1.2176618908270438
1.2176886373212916
1.2176618405534174
1.2176658608426401
1.2176618350296347
1.2176627437433634
1.2176618350296347
1.2176658608426401
1.2176618405534174
1.2176886373212916
1.2176618908270438
1.2177957213107939
1.2176621970176553
1.2181430681758747
1.2176632364624558
1.2188880789137109
1.2176645716256667
1.2199872970920582
1.2176632815598349
1.2214473090706019
1.2176549984982599
1.2227001388253087
1.3423793216837738
1.3468006823120231
1.3423914217481447
1.345090766537496
1.3423922284192227
1.3438163522945665
1.3423900355582237
1.3429423817778963
1.3423885738268531
1.3425384287060305
1.3423881710412107
1.3424171377327569
1.3423881082836242
1.3423922763606162
1.342388101691248
1.3423890008161481
1.342388101691248
1.3423922763606162
1.3423881082836242
1.3424171377327569
1.3423881710412107
1.3425384287060305
1.3423885738268531
1.3429423817778963
1.3423900355582237
1.3438163522945665
1.3423922284192227
1.345090766537496
1.3423914217481447
1.3468006823120231
1.3423793216837738
1.3486451353339457
1.492117548952373
1.4969791805747326
1.4921332394850031
1.4951466699629954
1.4921330100206416
1.4937338762564958
1.4921297967158758
1.4927403520063856
1.4921279204840172
1.4922877239156624
1.4921274420950024
1.492156868858773
1.4921273724364514
1.4921313682777566
1.4921273655538014
1.4921281761402063
1.4921273655538014
1.4921313682777566
1.4921273724364514
1.492156868858773
1.4921274420950024
1.4922877239156624
1.4921279204840172
1.4927403520063856
1.4921297967158758
1.4937338762564958
1.4921330100206416
1.4951466699629954
1.4921332394850031
1.4969791805747326
1.492117548952373
1.5
1.6416973003937447
1.6467832464869994
1.641715258976481
1.6449522538571206
1.6417140016077767
1.6434396999836953
1.6417099484150222
1.6423494119716493
1.6417078218927628
1.6418669983318988
1.6417073262240964
1.6417348645359784
1.6417072598976432
1.6417107445322687
1.6417072538338886
1.6417079112436417
1.6417072538338886
1.6417107445322687
1.6417072598976432
1.6417348645359784
1.6417073262240964
1.6418669983318988
1.6417078218927628
1.6423494119716493
1.6417099484150222
1.6434396999836953
1.6417140016077767
1.6449522538571206
1.641715258976481
1.6467832464869994
1.6416973003937447
1.6513548646660543
1.7666372477526577
1.7717838984421252
1.7666551930027758
1.7700180267673167
1.7666538072007969
1.7684221026937612
1.766649528703891
1.767273307872796
1.7666474738969216
1.7667928498776355
1.7666470399532945
1.7666704264303077
1.7666469870190125
1.766649728302915
1.7666469825620752
1.7666474620247321
1.7666469825620752
1.766649728302915
1.7666469870190125
1.7666704264303077
1.7666470399532945
1.7667928498776355
1.7666474738969216
1.767273307872796
1.766649528703891
1.7684221026937612
1.7666538072007969
1.7700180267673167
1.7666551930027758
1.7717838984421252
1.7666372477526577
1.7772998611746911
1.8564716208379899
1.8616333661965754
1.8564876650485549
1.8598666064728413
1.8564868411449116
1.8581845336426668
1.8564830454828782
1.85704151983818
1.8564813722661779
1.8566020802900376
1.8564810523688624
1.8564990673492308
1.8564810166778631
1.8564829774351972
1.856481013895587
1.8564813333323471
1.856481013895587
1.8564829774351972
1.8564810166778631
1.8564990673492308
1.8564810523688624
1.8566020802900376
1.8564813722661779
1.85704151983818
1.8564830454828782
1.8581845336426668
1.8564868411449116
1.8598666064728413
1.8564876650485549
1.8616333661965754
1.8564716208379899
1.8670357598021707
1.9146289862853714
1.9196047707844752
1.9146418103862739
1.9178300972732709
1.9146415951259033
1.9161402897996727
1.9146387516991097
1.9150948582845655
1.9146375980313173
1.9147290902945036
1.9146373967721884
1.9146501357653485
1.914637376023302
1.9146386745874682
1.9146373745107506
1.9146375735256245
1.9146373745107506
1.9146386745874682
1.914637376023302
1.9146501357653485
1.9146373967721884
1.9147290902945036
1.9146375980313173
1.9150948582845655
1.9146387516991097
1.9161402897996727
1.9146415951259033
1.9178300972732709
1.9146418103862739
1.9196047707844752
1.9146289862853714
1.9241418199787566
1.9495213484080374
1.954195414614013
1.949530565931241
1.9523539092815358
1.9495307035693561
1.9507509412215986
1.9495288739588659
1.9498719213187201
1.949528187301637
1.9495924129397542
1.9495280767831777
1.9495364948885376
1.9495280661267573
1.9495288786487119
1.9495280653923708
1.9495281839170335
1.9495280653923708
1.9495288786487119
1.9495280661267573
1.9495364948885376
1.9495280767831777
1.9495924129397542
1.949528187301637
1.9498719213187201
1.9495288739588659
1.9507509412215986
1.9495307035693561
1.9523539092815358
1.949530565931241
1.954195414614013
1.9495213484080374
1.9579122720843811
1.970833242939622
1.9744706934101628
1.9708390989790929
1.9729920598270028
1.9708393974083114
1.9717233492863115
1.9708384006374879
1.9710734257394591
1.970838045411403
1.9708798598707933
1.97083799159449
1.9708432301297047
1.9708379866644907
1.9708384722058516
1.9708379863394847
1.9708380546478734
1.9708379863394847
1.9708384722058516
1.9708379866644907
1.9708432301297047
1.97083799159449
1.9708798598707933
1.970838045411403
1.9710734257394591
1.9708384006374879
1.9717233492863115
1.9708393974083114
1.9729920598270028
1.9708390989790929
1.9744706934101628
1.970833242939622
1.9770226300899743
1.982106514492554
1.9853217870761255
1.9821099518326115
1.983827359686273
1.982110183524856
1.9827499070562924
1.9821096787716483
1.9822675671531422
1.9821095103649229
1.9821360681742823
1.9821094863602338
1.9821126710804018
1.982109484263044
1.9821097691001883
1.9821094841300426
1.9821095230335966
1.9821094841300426
1.9821097691001883
1.982109484263044
1.9821126710804018
1.9821094863602338
1.9821360681742823
1.9821095103649229
1.9822675671531422
1.9821096787716483
1.9827499070562924
1.982110183524856
1.983827359686273
1.9821099518326115
1.9853217870761255
1.982106514492554
1.9875683491468141
1.991718315896118
1.9926601363703869
1.9917205335503454
1.9923230897833364
1.9917208668915829
1.9919801461930771
1.9917206686011562
1.9917905810818664
1.9917205961288567
1.9917329878642123
1.9917205856004068
1.9917221189534007
1.9917205846738788
1.9917207244580555
1.9917205846154968
1.9917206039252484
1.9917205846154968
1.9917207244580555
1.9917205846738788
1.9917221189534007
1.9917205856004068
1.9917329878642123
1.9917205961288567
1.9917905810818664
1.9917206686011562
1.9919801461930771
1.9917208668915829
1.9923230897833364
1.9917205335503454
1.9926601363703869
1.991718315896118
1.993307149075715
1.9935741997245073
1.9952315788298385
1.9935750811584985
1.9943769379023497
1.9935751699788444
1.9938443669479573
1.9935750797653387
1.9936360379957381
1.9935750519136968
1.9935846343440549
1.9935750482812906
1.9935761375816616
1.9935750479869365
1.9935751412932359
1.9935750479694494
1.9935750602730591
1.9935750479694494
1.9935751412932359
1.9935750479869365
1.9935761375816616
1.9935750482812906
1.9935846343440549
1.9935750519136968
1.9936360379957381
1.9935750797653387
1.9938443669479573
1.9935751699788444
1.9943769379023497
1.9935750811584985
1.9952315788298385
1.9935741997245073
1.9964063974185799
2.000978256278545
1.9988762921807022
2.0009815947359195
1.9998367574048492
2.0009821219016697
2.0005880366645177
2.0009817660225946
2.0008965644486962
2.0009816410552088
2.0009693738723762
2.0009816231675495
2.000980376783891
2.0009816215770533
2.000981527749162
2.0009816214747
2.000981610718612
2.0009816214747
2.000981527749162
2.0009816215770533
2.000980376783891
2.0009816231675495
2.0009693738723762
2.0009816410552088
2.0008965644486962
2.0009817660225946
2.0005880366645177
2.0009821219016697
1.9998367574048492
2.0009815947359195
1.9988762921807022
2.000978256278545
1.9980732653366724
1.9978189513794626
1.9984845792700092
1.9978191023800942
1.9981282850517605
1.9978191143860615
1.9979210787391579
1.9978191112572758
1.9978421966829938
1.9978191121894142
1.9978227660790748
1.9978191126181848
1.9978195313414842
1.9978191126815623
1.9978191487969206
1.9978191126870879
1.9978191174721156
1.9978191126870879
1.9978191487969206
1.9978191126815623
1.9978195313414842
1.9978191126181848
1.9978227660790748
1.9978191121894142
1.9978421966829938
1.9978191112572758
1.9979210787391579
1.9978191143860615
1.9981282850517605
1.9978191023800942
1.9984845792700092
1.9978189513794626
1.9989677689632452
2.0048709550612687
2.0009803500748866
2.0048813110467667
2.00238101265878
2.0048816638343414
2.0037959461250763
2.0048796461041483
2.0045865220832608
2.0048789253852535
2.0048273494775657
2.0048788149424359
2.0048725191739658
2.004878804664981
2.0048782410989703
2.0048788039771912
2.0048787278078191
2.0048788039771912
2.0048782410989703
2.004878804664981
2.0048725191739658
2.0048788149424359
2.0048273494775657
2.0048789253852535
2.0045865220832608
2.0048796461041483
2.0037959461250763
2.0048816638343414
2.00238101265878
2.0048813110467667
2.0009803500748866
2.0048709550612687
1.9994472213630763
1.9993535971923591
1.9995671104335397
1.9993535293562918
1.9994507640615096
1.9993535320855789
1.999387831906678
1.999353553218034
1.9993625251872895
1.9993535638230948
1.9993552417938596
1.9993535661230117
1.9993537916653308
1.9993535664100102
1.9993535888722693
1.999353566434056
1.9993535698038045
1.999353566434056
1.9993535888722693
1.9993535664100102
1.9993537916653308
1.9993535661230117
1.9993552417938596
1.9993535638230948
1.9993625251872895
1.999353553218034
1.999387831906678
1.9993535320855789
1.9994507640615096
1.9993535293562918
1.9995671104335397
1.9993535971923591
1.999704042886487
2.0073480022631101
2.0026340036398818
2.0073699202458721
2.0043701388027562
2.0073657233465556
2.0059126050023961
2.0073605294745751
2.0069087397044467
2.0073586691035734
2.0072676127468139
2.0073583512553972
2.0073457728652047
2.0073583185227224
2.0073570580220679
2.0073583161474686
2.0073581276295003
2.0073583161474686
2.0073570580220679
2.0073583185227224
2.0073457728652047
2.0073583512553972
2.0072676127468139
2.0073586691035734
2.0069087397044467
2.0073605294745751
2.0059126050023961
2.0073657233465556
2.0043701388027562
2.0073699202458721
2.0026340036398818
2.0073480022631101
1.9998415637808975
1.9999151889582765
1.9999151889582765
1.9999151889582765
1.9999151889582765
1.9999151889582765
1.9999151889582765
1.9999151889582765
1.9999151889582765
1.9999151889582765
1.9999151889582765
1.9999151889582765
1.9999151889582765
1.9999151889582765
1.9999151889582765
1.9999151889582765
1.9999151889582765
1.9999151889582765
1.9999151889582765
1.9999151889582765
1.9999151889582765
1.9999151889582765
1.9999151889582765
1.9999151889582765
1.9999151889582765
1.9999151889582765
1.9999151889582765
1.9999151889582765
1.9999151889582765
1.9999151889582765
1.9999151889582765
1.9999151889582765
1.9999151889582765
1.0031641988151905
1.0014292504054179
1.0031822833149437
1.0020077092742794
1.003182418443205
1.0022519667637961
1.0031812110705691
1.0025292832266037
1.0031789812423537
1.0028681045260868
1.003177356483856
1.0030788907725909
1.0031768108383123
1.0031546997283949
1.0031767050734828
1.0031697329979177
1.0031767050734828
1.0031546997283949
1.0031768108383123
1.0030788907725909
1.003177356483856
1.0028681045260868
1.0031789812423537
1.0025292832266037
1.0031812110705691
1.0022519667637961
1.003182418443205
1.0020077092742794
1.0031822833149437
1.0014292504054179
1.0031641988151905
1.0000453978687025
1.0000391374589805
1.0000749261281963
1.0000390585384813
1.000059700945837
1.0000390440601463
1.0000485073730272
1.0000390517235354
1.0000425667604216
1.0000390596193376
1.0000401563222372
1.0000390639678316
1.0000393475775713
1.0000390654024203
1.0000391250630107
1.0000390656974201
1.0000390845376743
1.0000390656974201
1.0000391250630107
1.0000390654024203
1.0000393475775713
1.0000390639678316
1.0000401563222372
1.0000390596193376
1.0000425667604216
1.0000390517235354
1.0000485073730272
1.0000390440601463
1.000059700945837
1.0000390585384813
1.0000749261281963
1.0000391374589805
1.0000848110417238
1.0020560656118664
1.0007021083487517
1.0020645661602143
1.0010469158501054
1.0020672171312606
1.0011923111158871
1.0020674507940763
1.0014691132239968
1.0020659202754956
1.0018023986838176
1.0020648160616643
1.0019886147704224
1.0020644833872454
1.0020488791520248
1.0020644253429718
1.0020598900071014
1.0020644253429718
1.0020488791520248
1.0020644833872454
1.0019886147704224
1.0020648160616643
1.0018023986838176
1.0020659202754956
1.0014691132239968
1.0020674507940763
1.0011923111158871
1.0020672171312606
1.0010469158501054
1.0020645661602143
1.0007021083487517
1.0020560656118664
1.0001584362191025
1.0001771218400903
1.0002618307616447
1.0001771460163842
1.0002274867069061
1.0001771421292769
1.0002004509529814
1.0001771364798051
1.0001853957603699
1.0001771350914257
1.0001794195807612
1.0001771356962144
1.0001776351016129
1.0001771360748946
1.0001772238354962
1.0001771361635785
1.000177159950709
1.0001771361635785
1.0001772238354962
1.0001771360748946
1.0001776351016129
1.0001771356962144
1.0001794195807612
1.0001771350914257
1.0001853957603699
1.0001771364798051
1.0002004509529814
1.0001771421292769
1.0002274867069061
1.0001771460163842
1.0002618307616447
1.0001771218400903
1.0002959571135133
1.0018402414402272
1.0007426617421298
1.0018434465624042
1.0008535848995572
1.001845728355387
1.0010200145364176
1.0018460542887908
1.001378929049302
1.0018452541447076
1.0016759062572809
1.0018447852325982
1.0018034030258365
1.0018446669676839
1.0018373552331494
1.0018446489218129
1.0018427675859964
1.0018446489218129
1.0018373552331494
1.0018446669676839
1.0018034030258365
1.0018447852325982
1.0016759062572809
1.0018452541447076
1.001378929049302
1.0018460542887908
1.0010200145364176
1.001845728355387
1.0008535848995572
1.0018434465624042
1.0007426617421298
1.0018402414402272
1.0005527786369237
1.0007898337738761
1.0009665482718084
1.000789881905884
1.0008994906024451
1.0007899037095889
1.0008454393681614
1.0007899010159513
1.0008114895250002
1.0007898965798561
1.0007961633196301
1.0007898952989813
1.0007912580645117
1.0007898951153829
1.0007901240002881
1.0007898951001848
1.0007899534890048
1.0007898951001848
1.0007901240002881
1.0007898951153829
1.0007912580645117
1.0007898952989813
1.0007961633196301
1.0007898965798561
1.0008114895250002
1.0007899010159513
1.0008454393681614
1.0007899037095889
1.0008994906024451
1.000789881905884
1.0009665482718084
1.0007898337738761
1.001032231036755
1.0031755908018931
1.0021272639550776
1.0031769867680769
1.00232858633112
1.0031782244111969
1.0026379541507255
1.0031783777805627
1.0029466248147332
1.0031781376859124
1.0031115840429119
1.0031780220277009
1.0031646555777898
1.0031779967743988
1.0031760130403009
1.0031779932935667
1.0031775546279025
1.0031779932935667
1.0031760130403009
1.0031779967743988
1.0031646555777898
1.0031780220277009
1.0031115840429119
1.0031781376859124
1.0029466248147332
1.0031783777805627
1.0026379541507255
1.0031782244111969
1.00232858633112
1.0031769867680769
1.0021272639550776
1.0031755908018931
1.0019267346633276
1.0032088786655491
1.0035136275508141
1.0032089913275224
1.0034155782071654
1.0032090582109452
1.0033263287375507
1.0032090584152122
1.0032591442016074
1.0032090456898626
1.0032245112624245
1.0032090406127836
1.0032125307464039
1.0032090395976534
1.0032096388947727
1.0032090394662325
1.0032091943418242
1.0032090394662325
1.0032096388947727
1.0032090395976534
1.0032125307464039
1.0032090406127836
1.0032245112624245
1.0032090456898626
1.0032591442016074
1.0032090584152122
1.0033263287375507
1.0032090582109452
1.0034155782071654
1.0032089913275224
1.0035136275508141
1.0032088786655491
1.0035936025814203
1.0075031743579801
1.0069555050357621
1.0075038256835525
1.0071787188318777
1.0075043220172131
1.0073774738185393
1.0075043819946341
1.0074786034718222
1.0075043264792221
1.0075039303671889
1.007504301262806
1.0075055414796208
1.0075042959942955
1.0075046845636513
1.0075042952927868
1.0075044286288799
1.0075042952927868
1.0075046845636513
1.0075042959942955
1.0075055414796208
1.007504301262806
1.0075039303671889
1.0075043264792221
1.0074786034718222
1.0075043819946341
1.0073774738185393
1.0075043220172131
1.0071787188318777
1.0075038256835525
1.0069555050357621
1.0075031743579801
1.006692850924285
1.0119456171870151
1.0123834997193253
1.011945906199514
1.0122635468723191
1.011946063547982
1.0121451569469315
1.0119460542888572
1.0120391057652969
1.011946009133603
1.0119767675495925
1.0119459900723955
1.0119532850908355
1.0119459860335851
1.0119472862413337
1.0119459854857
1.0119463306701166
1.0119459854857
1.0119472862413337
1.0119459860335851
1.0119532850908355
1.0119459900723955
1.0119767675495925
1.011946009133603
1.0120391057652969
1.0119460542888572
1.0121451569469315
1.011946063547982
1.0122635468723191
1.011945906199514
1.0123834997193253
1.0119456171870151
1.0124316508531859
1.0230823372168882
1.0231810985672223
1.0230828938601491
1.0232357190417942
1.023083186352272
1.0232390275215051
1.0230831776651261
1.0231768973442059
1.0230831001131484
1.0231184281331445
1.0230830659954722
1.0230920830602845
1.0230830585548525
1.0230847387504423
1.0230830575252741
1.0230835157508866
1.0230830575252741
1.0230847387504423
1.0230830585548525
1.0230920830602845
1.0230830659954722
1.0231184281331445
1.0230831001131484
1.0231768973442059
1.0230831776651261
1.0232390275215051
1.023083186352272
1.0232357190417942
1.0230828938601491
1.0231810985672223
1.0230823372168882
1.0229773699100257
1.0415907404586418
1.042149658563793
1.0415914900173728
1.0420005861055934
1.0415917587993815
1.0418694859483442
1.0415916948944923
1.0417328381056299
1.0415915676874212
1.0416411709433846
1.0415915133765274
1.0416037690653519
1.0415915014921113
1.0415937452650801
1.0415914998349354
1.0415921053079746
1.0415914998349354
1.0415937452650801
1.0415915014921113
1.0416037690653519
1.0415915133765274
1.0416411709433846
1.0415915676874212
1.0417328381056299
1.0415916948944923
1.0418694859483442
1.0415917587993815
1.0420005861055934
1.0415914900173728
1.042149658563793
1.0415907404586418
1.0420877279156189
1.0755398719054208
1.076061726426101
1.0755410874500104
1.0759377854855376
1.0755413740197464
1.0758359069652947
1.0755412465656682
1.0757006041869179
1.0755410545247601
1.0755989156549213
1.0755409732808605
1.0755554810136103
1.0755409554215265
1.0755436229921522
1.075540952920647
1.0755416715642117
1.075540952920647
1.0755436229921522
1.0755409554215265
1.0755554810136103
1.0755409732808605
1.0755989156549213
1.0755410545247601
1.0757006041869179
1.0755412465656682
1.0758359069652947
1.0755413740197464
1.0759377854855376
1.0755410874500104
1.076061726426101
1.0755398719054208
1.0758581800212434
1.1323569711252963
1.1330790882445376
1.1323588810464067
1.1328424338026162
1.1323590682048459
1.1327002823856993
1.1323588283477317
1.1325418552619491
1.1323585544278829
1.1324247223172117
1.1323584419911659
1.1323748859797051
1.1323584175412547
1.1323613984163781
1.1323584141453433
1.1323592036777359
1.1323584141453433
1.1323613984163781
1.1323584175412547
1.1323748859797051
1.1323584419911659
1.1324247223172117
1.1323585544278829
1.1325418552619491
1.1323588283477317
1.1327002823856993
1.1323590682048459
1.1328424338026162
1.1323588810464067
1.1330790882445376
1.1323569711252963
1.1329642401978293
1.2217522084116332
1.2225193926464124
1.2217548564858773
1.2222511438171244
1.2217548211848988
1.2221172226190777
1.221754444919765
1.2219529595914387
1.2217540858768938
1.2218256217973344
1.2217539437911569
1.2217714038458412
1.221753913653016
1.221756992392097
1.2217539095607892
1.2217546997535575
1.2217539095607892
1.221756992392097
1.221753913653016
1.2217714038458412
1.2217539437911569
1.2218256217973344
1.2217540858768938
1.2219529595914387
1.221754444919765
1.2221172226190777
1.2217548211848988
1.2222511438171244
1.2217548564858773
1.2225193926464124
1.2217522084116332
1.2227001388253087
1.3467296026780025
1.347506391842419
1.346732618544618
1.3472380446886265
1.3467322964986066
1.3471139201603854
1.346731794651242
1.3469412517353914
1.3467313679688353
1.3468051446439184
1.3467312065836203
1.3467485610798193
1.3467311736906873
1.3467340928283851
1.3467311693924808
1.3467318814282225
1.3467311693924808
1.3467340928283851
1.3467311736906873
1.3467485610798193
1.3467312065836203
1.3468051446439184
1.3467313679688353
1.3469412517353914
1.346731794651242
1.3471139201603854
1.3467322964986066
1.3472380446886265
1.346732618544618
1.347506391842419
1.3467296026780025
1.3486451353339457
1.496638688823781
1.4973259913455748
1.4966415271988249
1.4971295495187764
1.4966410559356542
1.4970299909409048
1.4966405099132636
1.4968522399581168
1.4966400633500621
1.4967115738661254
1.4966399029476785
1.4966557603164317
1.4966398721588963
1.4966423590404134
1.4966398683761482
1.4966404326114371
1.4966398683761482
1.4966423590404134
1.4966398721588963
1.4966557603164317
1.4966399029476785
1.4967115738661254
1.4966400633500621
1.4968522399581168
1.4966405099132636
1.4970299909409048
1.4966410559356542
1.4971295495187764
1.4966415271988249
1.4973259913455748
1.496638688823781
1.5
1.6468606219145427
1.6474446299468097
1.6468627828384816
1.6473335740460233
1.6468625856726784
1.6472548030786665
1.6468621341789562
1.6470661940164726
1.6468617410229274
1.646925501121014