# vtk DataFile Version 3.0
Euler density step 182
ASCII
DATASET STRUCTURED_POINTS
DIMENSIONS 32 32 32
ORIGIN 0 0 0
SPACING 0.3125 0.3125 0.3125
POINT_DATA 32768
SCALARS density double 1
LOOKUP_TABLE default
1.0030549068410282
1.0018175751456029
1.0030559680226974
1.0028089872085095
1.0030556859744979
1.0030276365022992
1.0030556485631721
1.003053677540676
1.0030556468012397
1.0030555544292328
1.0030556467547176
1.0030556436993345
1.0030556467539808
1.0030556466795455
1.0030556467539755
1.0030556467512197
1.0030556467539755
1.0030556466795455
1.0030556467539808
1.0030556436993345
1.0030556467547176
1.0030555544292328
1.0030556468012397
1.003053677540676
1.0030556485631721
1.0030276365022992
1.0030556859744979
1.0028089872085095
1.0030559680226974
1.0018175751456029
1.0030549068410282
1.0000453978687025
1.0000880281381324
1.0000878267137554
1.0000880277357891
1.0000881025510244
1.0000880277895974
1.0000880466638968
1.0000880278048208
1.0000880297552568
1.0000880278057955
1.0000880279239186
1.0000880278058264
1.0000880278105801
1.0000880278058271
1.0000880278059638
1.0000880278058271
1.0000880278058335
1.0000880278058271
1.0000880278059638
1.0000880278058271
1.0000880278105801
1.0000880278058264
1.0000880279239186
1.0000880278057955
1.0000880297552568
1.0000880278048208
1.0000880466638968
1.0000880277895974
1.0000881025510244
1.0000880277357891
1.0000878267137554
1.0000880281381324
1.0000848110417238
1.0016062816639106
1.00114663272674
1.0016064987698221
1.0015309385921363
1.0016064813899308
1.0015993972975725
1.0016064785537351
1.0016060603834844
1.0016064784316785
1.0016064616988323
1.001606478429067
1.001606477950278
1.0016064784290468
1.0016064784188536
1.0016064784290468
1.0016064784287138
1.0016064784290468
1.0016064784188536
1.0016064784290468
1.001606477950278
1.001606478429067
1.0016064616988323
1.0016064784316785
1.0016060603834844
1.0016064785537351
1.0015993972975725
1.0016064813899308
1.0015309385921363
1.0016064987698221
1.00114663272674
1.0016062816639106
1.0001584362191025
1.0002948103988802
1.0002956711346236
1.0002948104092868
1.0002950087969451
1.0002948104072777
1.0002948347588734
1.0002948104078453
1.0002948122139599
1.000294810407897
1.000294810496714
1.0002948104078992
1.0002948104109886
1.0002948104078992
1.0002948104079796
1.0002948104078992
1.0002948104079017
1.0002948104078992
1.0002948104079796
1.0002948104078992
1.0002948104109886
1.0002948104078992
1.000294810496714
1.000294810407897
1.0002948122139599
1.0002948104078453
1.0002948347588734
1.0002948104072777
1.0002950087969451
1.0002948104092868
1.0002956711346236
1.0002948103988802
1.0002959571135133
1.0008445890776447
1.0007675984806241
1.0008446059287419
1.0008343765812087
1.0008446057893592
1.000843821979627
1.0008446057097311
1.0008445673789081
1.0008446057066784
1.0008446044252814
1.0008446057066471
1.0008446056759639
1.0008446057066487
1.0008446057061069
1.0008446057066487
1.000844605706634
1.0008446057066487
1.0008446057061069
1.0008446057066487
1.0008446056759639
1.0008446057066471
1.0008446044252814
1.0008446057066784
1.0008445673789081
1.0008446057097311
1.000843821979627
1.0008446057893592
1.0008343765812087
1.0008446059287419
1.0007675984806241
1.0008445890776447
1.0005527786369237
1.0010234861962779
1.0010271963904513
1.0010234862080478
1.0010241569690508
1.0010234862066179
1.0010235577018316
1.0010234862064153
1.0010234910992735
1.0010234862064049
1.0010234864362721
1.0010234862064047
1.0010234862142011
1.0010234862064047
1.0010234862066034
1.0010234862064047
1.0010234862064131
1.0010234862064047
1.0010234862066034
1.0010234862064047
1.0010234862142011
1.0010234862064047
1.0010234864362721
1.0010234862064049
1.0010234910992735
1.0010234862064153
1.0010235577018316
1.0010234862066179
1.0010241569690508
1.0010234862080478
1.0010271963904513
1.0010234861962779
1.001032231036755
1.0019438958338851
1.0019432048965793
1.0019438965626308
1.0019442820491753
1.0019438965749943
1.0019439715159069
1.0019438965735423
1.0019439030926076
1.0019438965734933
1.0019438969193031
1.0019438965734933
1.0019438965860479
1.0019438965734933
1.0019438965738261
1.0019438965734933
1.0019438965735075
1.0019438965734933
1.0019438965738261
1.0019438965734933
1.0019438965860479
1.0019438965734933
1.0019438969193031
1.0019438965734933
1.0019439030926076
1.0019438965735423
1.0019439715159069
1.0019438965749943
1.0019442820491753
1.0019438965626308
1.0019432048965793
1.0019438958338851
1.0019267346633276
1.0035643600936039
1.0035767179174808
1.0035643602463049
1.0035665823446414
1.0035643602319426
1.0035645961995932
1.0035643602293898
1.0035643763285504
1.0035643602292548
1.003564360983366
1.0035643602292514
1.0035643602547504
1.0035643602292514
1.0035643602298985
1.0035643602292514
1.0035643602292761
1.0035643602292514
1.0035643602298985
1.0035643602292514
1.0035643602547504
1.0035643602292514
1.003564360983366
1.0035643602292548
1.0035643763285504
1.0035643602293898
1.0035645961995932
1.0035643602319426
1.0035665823446414
1.0035643602463049
1.0035767179174808
1.0035643600936039
1.0035936025814203
1.0066432810001789
1.0066649909157137
1.0066432814820654
1.0066472309802423
1.0066432814341393
1.006643703238117
1.0066432814258479
1.0066433102661347
1.0066432814254183
1.006643282776575
1.0066432814254047
1.0066432814710484
1.0066432814254047
1.0066432814265591
1.0066432814254047
1.0066432814254491
1.0066432814254047
1.0066432814265591
1.0066432814254047
1.0066432814710484
1.0066432814254047
1.006643282776575
1.0066432814254183
1.0066433102661347
1.0066432814258479
1.006643703238117
1.0066432814341393
1.0066472309802423
1.0066432814820654
1.0066649909157137
1.0066432810001789
1.006692850924285
1.0123416163043777
1.0123805982207619
1.012341617660647
1.0123486552427092
1.0123416174976849
1.012342365601584
1.0123416174713846
1.0123416684326587
1.0123416174700297
1.0123416198490522
1.0123416174699851
1.0123416175500541
1.0123416174699844
1.0123416174720055
1.0123416174699844
1.0123416174700643
1.0123416174699844
1.0123416174720055
1.0123416174699844
1.0123416175500541
1.0123416174699851
1.0123416198490522
1.0123416174700297
1.0123416684326587
1.0123416174713846
1.012342365601584
1.0123416174976849
1.0123486552427092
1.012341617660647
1.0123805982207619
1.0123416163043777
1.0124316508531859
1.0228250533460821
1.0228919842740796
1.0228250570698159
1.0228371483787271
1.0228250565451655
1.0228263400178348
1.0228250564656094
1.022825143599654
1.0228250564615666
1.0228250605095055
1.0228250564614392
1.0228250565968726
1.0228250564614363
1.0228250564648311
1.0228250564614363
1.0228250564615675
1.0228250564614363
1.0228250564648311
1.0228250564614363
1.0228250565968726
1.0228250564614392
1.0228250605095055
1.0228250564615666
1.022825143599654
1.0228250564656094
1.0228263400178348
1.0228250565451655
1.0228371483787271
1.0228250570698159
1.0228919842740796
1.0228250533460821
1.0229773699100257
1.0418357881739895
1.0419474334703678
1.0418357977231254
1.0418559047162581
1.0418357961134723
1.0418379185897026
1.0418357958863562
1.0418359388157117
1.0418357958750375
1.0418358024483545
1.0418357958746838
1.0418357960920761
1.0418357958746762
1.0418357958800561
1.0418357958746758
1.041835795874881
1.0418357958746758
1.0418357958800561
1.0418357958746762
1.0418357960920761
1.0418357958746838
1.0418358024483545
1.0418357958750375
1.0418359388157117
1.0418357958863562
1.0418379185897026
1.0418357961134723
1.0418559047162581
1.0418357977231254
1.0419474334703678
1.0418357881739895
1.0420877279156189
1.0754485847662969
1.075628598100806
1.0754486073505443
1.075480741950384
1.0754486027150545
1.0754519525605055
1.0754486021128131
1.0754488240677507
1.0754486020836262
1.0754486120983997
1.075448602082727
1.0754486024069601
1.0754486020827072
1.0754486020905465
1.0754486020827068
1.0754486020829992
1.0754486020827068
1.0754486020905465
1.0754486020827072
1.0754486024069601
1.075448602082727
1.0754486120983997
1.0754486020836262
1.0754488240677507
1.0754486021128131
1.0754519525605055
1.0754486027150545
1.075480741950384
1.0754486073505443
1.075628598100806
1.0754485847662969
1.0758581800212434
1.1323015619923971
1.1325808460750695
1.1323016103799088
1.1323506300263675
1.1323015980982061
1.1323065917625261
1.1323015966455727
1.1323019181478171
1.1323015965778953
1.1323016106106276
1.1323015965758723
1.1323015970138191
1.1323015965758276
1.1323015965860046
1.132301596575827
1.1323015965761898
1.132301596575827
1.1323015965860046
1.1323015965758276
1.1323015970138191
1.1323015965758723
1.1323016106106276
1.1323015965778953
1.1323019181478171
1.1323015966455727
1.1323065917625261
1.1323015980982061
1.1323506300263675
1.1323016103799088
1.1325808460750695
1.1323015619923971
1.1329642401978293
1.2216307679095906
1.22204429540795
1.2216308591381895
1.2217016091983621
1.2216308299792977
1.2216377752785719
1.2216308268753406
1.2216312537283618
1.2216308267385503
1.2216308443996484
1.2216308267346347
1.2216308272544121
1.2216308267345515
1.2216308267458995
1.2216308267345499
1.2216308267349298
1.2216308267345499
1.2216308267458995
1.2216308267345515
1.2216308272544121
1.2216308267346347
1.2216308443996484
1.2216308267385503
1.2216312537283618
1.2216308268753406
1.2216377752785719
1.2216308299792977
1.2217016091983621
1.2216308591381895
1.22204429540795
1.2216307679095906
1.2227001388253087
1.3469612366555996
1.3475378582975042
1.3469613840857968
1.3470565009698272
1.3469613246708392
1.3469701576638127
1.3469613190651879
1.3469618259980431
1.3469613188374148
1.3469613382570138
1.3469613188313592
1.346961319357491
1.3469613188312406
1.3469613188417733
1.3469613188312393
1.3469613188315595
1.3469613188312393
1.3469613188417733
1.3469613188312406
1.346961319357491
1.3469613188313592
1.3469613382570138
1.3469613188374148
1.3469618259980431
1.3469613190651879
1.3469701576638127
1.3469613246708392
1.3470565009698272
1.3469613840857968
1.3475378582975042
1.3469612366555996
1.3486451353339457
1.4975471728735184
1.4982835410192075
1.4975473705619275
1.4976626250270997
1.4975472753730428
1.4975572125741434
1.4975472675268964
1.4975477906746331
1.4975472672403023
1.4975472854978344
1.4975472672333989
1.4975472676821782
1.4975472672332755
1.497547267241403
1.4975472672332739
1.4975472672334988
1.4975472672332739
1.497547267241403
1.4975472672332755
1.4975472676821782
1.4975472672333989
1.4975472854978344
1.4975472672403023
1.4975477906746331
1.4975472675268964
1.4975572125741434
1.4975472753730428
1.4976626250270997
1.4975473705619275
1.4982835410192075
1.4975471728735184
1.5
1.6482607939294649
1.6490868246387287
1.6482610035496723
1.6483820125866777
1.6482608939765364
1.6482705026664877
1.6482608860531209
1.6482613486270841
1.6482608857939989
1.6482609005058655
1.6482608857883592
1.64826088611732
1.648260885788267
1.6482608857936809
1.6482608857882657
1.6482608857884018
1.6482608857882657
1.6482608857936809
1.648260885788267
1.64826088611732
1.6482608857883592
1.6482609005058655
1.6482608857939989
1.6482613486270841
1.6482608860531209
1.6482705026664877
1.6482608939765364
1.6483820125866777
1.6482610035496723
1.6490868246387287
1.6482607939294649
1.6513548646660543
1.7740457104546599
1.7748384896379574
1.7740458843172582
1.7741542674873707
1.7740457954030664
1.7740537678709747
1.7740457896207791
1.7740461445107416
1.7740457894484465
1.7740457998810106
1.7740457894449997
1.7740457896606092
1.7740457894449477
1.774045789448226
1.7740457894449473
1.7740457894450237
1.7740457894449473
1.774045789448226
1.7740457894449477
1.7740457896606092
1.7740457894449997
1.7740457998810106
1.7740457894484465
1.7740461445107416
1.7740457896207791
1.7740537678709747
1.7740457954030664
1.7741542674873707
1.7740458843172582
1.7748384896379574
1.7740457104546599
1.7772998611746911
1.8641677345815946
1.8648222771126979
1.8641678514374045
1.8642518976311482
1.8641677979967139
1.8641736031937499
1.8641677947718467
1.864168037875412
1.8641677946820814
1.8641678014160339
1.864167794680393
1.8641677948116868
1.8641677946803703
1.8641677946822561
1.8641677946803701
1.8641677946804103
1.8641677946803701
1.8641677946822561
1.8641677946803703
1.8641677948116868
1.864167794680393
1.8641678014160339
1.8641677946820814
1.864168037875412
1.8641677947718467
1.8641736031937499
1.8641677979967139
1.8642518976311482
1.8641678514374045
1.8648222771126979
1.8641677345815946
1.8670357598021707
1.9219578734751963
1.9224344451695581
1.9219579392626707
1.9220160430897981
1.9219579137164571
1.9219617390797792
1.9219579122476349
1.9219580655202706
1.9219579122086341
1.9219579162818465
1.9219579122079322
1.9219579122842607
1.9219579122079229
1.9219579122089769
1.9219579122079229
1.9219579122079449
1.9219579122079229
1.9219579122089769
1.9219579122079229
1.9219579122842607
1.9219579122079322
1.9219579162818465
1.9219579122086341
1.9219580655202706
1.9219579122476349
1.9219617390797792
1.9219579137164571
1.9220160430897981
1.9219579392626707
1.9224344451695581
1.9219578734751963
1.9241418199787566
1.9564237897859285
1.9567387583856184
1.9564238214350689
1.9564607191140184
1.9564238110925529
1.9564261577195581
1.9564238105150189
1.9564239017326588
1.9564238105001575
1.9564238128588398
1.956423810499897
1.9564238105429903
1.9564238104998934
1.9564238105004765
1.9564238104998934
1.9564238104999059
1.9564238104998934
1.9564238105004765
1.9564238104998934
1.9564238105429903
1.956423810499897
1.9564238128588398
1.9564238105001575
1.9564239017326588
1.9564238105150189
1.9564261577195581
1.9564238110925529
1.9564607191140184
1.9564238214350689
1.9567387583856184
1.9564237897859285
1.9579122720843811
1.9760868653148262
1.9762807703772423
1.9760868786198962
1.9761089446701192
1.9760868748969809
1.9760882452535131
1.9760868746924534
1.9760869269102785
1.9760868746872946
1.9760868760143431
1.9760868746872076
1.9760868747110782
1.976086874687206
1.9760868746875233
1.976086874687206
1.9760868746872118
1.976086874687206
1.9760868746875233
1.976086874687206
1.9760868747110782
1.9760868746872076
1.9760868760143431
1.9760868746872946
1.9760869269102785
1.9760868746924534
1.9760882452535131
1.9760868748969809
1.9761089446701192
1.9760868786198962
1.9762807703772423
1.9760868653148262
1.9770226300899743
1.9870118886034669
1.9871255727123365
1.9870118936210532
1.9870245691514514
1.9870118923845057
1.9870126671724724
1.9870118923171387
1.9870119214683797
1.9870118923154623
1.9870118930484684
1.9870118923154336
1.9870118923284972
1.9870118923154334
1.9870118923156046
1.9870118923154334
1.9870118923154367
1.9870118923154334
1.9870118923156046
1.9870118923154334
1.9870118923284972
1.9870118923154336
1.9870118930484684
1.9870118923154623
1.9870119214683797
1.9870118923171387
1.9870126671724724
1.9870118923845057
1.9870245691514514
1.9870118936210532
1.9871255727123365
1.9870118886034669
1.9875683491468141
1.9929989323123669
1.9930620195157025
1.9929989341045222
1.9930059378603235
1.9929989337181058
1.9929993596692592
1.9929989336969405
1.9929989496446281
1.992998933696416
1.9929989340955796
1.9929989336964073
1.9929989337034899
1.9929989336964071
1.9929989336965002
1.9929989336964071
1.9929989336964087
1.9929989336964071
1.9929989336965002
1.9929989336964071
1.9929989337034899
1.9929989336964073
1.9929989340955796
1.992998933696416
1.9929989496446281
1.9929989336969405
1.9929993596692592
1.9929989337181058
1.9930059378603235
1.9929989341045222
1.9930620195157025
1.9929989323123669
1.993307149075715
1.9962287697084573
1.9962646807505995
1.9962287702748267
1.9962326845199305
1.9962287701559647
1.9962290054999305
1.9962287701495349
1.9962287788949686
1.9962287701493768
1.9962287703671202
1.9962287701493753
1.9962287701532249
1.9962287701493753
1.9962287701494255
1.9962287701493753
1.9962287701493759
1.9962287701493753
1.9962287701494255
1.9962287701493753
1.9962287701532249
1.9962287701493753
1.9962287703671202
1.9962287701493768
1.9962287788949686
1.9962287701495349
1.9962290054999305
1.9962287701559647
1.9962326845199305
1.9962287702748267
1.9962646807505995
1.9962287697084573
1.9964063974185799
1.9981265926878709
1.9981203628506958
1.9981265953942813
1.9981267095852591
1.9981265952925988
1.9981266349815261
1.9981265952825069
1.9981265975825666
1.9981265952822005
1.9981265953536962
1.9981265952821952
1.9981265952836389
1.9981265952821952
1.998126595282216
1.9981265952821952
1.9981265952821954
1.9981265952821952
1.998126595282216
1.9981265952821952
1.9981265952836389
1.9981265952821952
1.9981265953536962
1.9981265952822005
1.9981265975825666
1.9981265952825069
1.9981266349815261
1.9981265952925988
1.9981267095852591
1.9981265953942813
1.9981203628506958
1.9981265926878709
1.9980732653366724
1.9989130470688055
1.9989244373336252
1.9989130470869987
1.9989142787459739
1.998913047081772
1.9989131205657087
1.9989130470817233
1.9989130497940686
1.9989130470817276
1.9989130471488759
1.9989130470817276
1.998913047082908
1.9989130470817276
1.9989130470817424
1.9989130470817276
1.9989130470817282
1.9989130470817276
1.9989130470817424
1.9989130470817276
1.998913047082908
1.9989130470817276
1.9989130471488759
1.9989130470817276
1.9989130497940686
1.9989130470817233
1.9989131205657087
1.998913047081772
1.9989142787459739
1.9989130470869987
1.9989244373336252
1.9989130470688055
1.9989677689632452
2.0005940210073403
2.0003427998162384
2.0005940767460877
2.0005694336172022
2.0005940707152674
2.000592758189879
2.00059407030425
2.0005940271135625
2.0005940702927187
2.0005940693366702
2.0005940702925087
2.000594070277411
2.0005940702925056
2.0005940702923288
2.0005940702925056
2.0005940702925029
2.0005940702925056
2.0005940702923288
2.0005940702925056
2.000594070277411
2.0005940702925087
2.0005940693366702
2.0005940702927187
2.0005940271135625
2.00059407030425
2.000592758189879
2.0005940707152674
2.0005694336172022
2.0005940767460877
2.0003427998162384
2.0005940210073403
1.9994472213630763
1.999687119561617
1.999692172237471
1.9996871193567891
1.9996877653642233
1.9996871194896886
1.9996871623739547
1.9996871195003845
1.9996871212021954
1.9996871195007477
1.9996871195451111
1.9996871195007555
1.9996871195015673
1.9996871195007557
1.9996871195007673
1.9996871195007557
1.9996871195007559
1.9996871195007557
1.9996871195007673
1.9996871195007557
1.9996871195015673
1.9996871195007555
1.9996871195451111
1.9996871195007477
1.9996871212021954
1.9996871195003845
1.9996871623739547
1.9996871194896886
1.9996877653642233
1.9996871193567891
1.999692172237471
1.999687119561617
1.999704042886487
2.003709148444071
2.0026602973419032
2.0037094240529569
2.0035760720660436
2.0037092638212832
2.0037003569248055
2.003709254768284
2.0037088984151037
2.0037092545283484
2.0037092451615366
2.0037092545240642
2.0037092543515134
2.0037092545240078
2.0037092545216719
2.0037092545240078
2.0037092545239603
2.0037092545240078
2.0037092545216719
2.0037092545240078
2.0037092543515134
2.0037092545240642
2.0037092451615366
2.0037092545283484
2.0037088984151037
2.003709254768284
2.0037003569248055
2.0037092638212832
2.0035760720660436
2.0037094240529569
2.0026602973419032
2.003709148444071
1.9998415637808975
1.9999151889582765
1.9999151889582765
1.9999151889582765
1.9999151889582765
1.9999151889582765
1.9999151889582765
1.9999151889582765
1.9999151889582765
1.9999151889582765
1.9999151889582765
1.9999151889582765
1.9999151889582765
1.9999151889582765
1.9999151889582765
1.9999151889582765
1.9999151889582765
1.9999151889582765
1.9999151889582765
1.9999151889582765
1.9999151889582765
1.9999151889582765
1.9999151889582765
1.9999151889582765
1.9999151889582765
1.9999151889582765
1.9999151889582765
1.9999151889582765
1.9999151889582765
1.9999151889582765
1.9999151889582765
1.9999151889582765
1.9999151889582765
1.0044917939172087
1.0030850299209324
1.0044937301770209
1.0041362192157119
1.0044928288681776
1.0044424479478655
1.0044926822231186
1.0044884202930335
1.0044926726009458
1.0044924370947534
1.004492672213843
1.004492663146312
1.004492672202735
1.0044926719474059
1.0044926722024932
1.0044926721916021
1.0044926722024932
1.0044926719474059
1.004492672202735
1.004492663146312
1.004492672213843
1.0044924370947534
1.0044926726009458
1.0044884202930335
1.0044926822231186
1.0044424479478655
1.0044928288681776
1.0041362192157119
1.0044937301770209
1.0030850299209324
1.0044917939172087
1.0000453978687025
1.0000908403779656
1.0000892547447451
1.0000908400351098
1.0000906233793116
1.0000908399734469
1.0000908249428504
1.0000908399977495
1.0000908395948671
1.0000908400005712
1.0000908400133224
1.0000908400007182
1.0000908400022519
1.0000908400007233
1.0000908400007902
1.0000908400007233
1.000090840000726
1.0000908400007233
1.0000908400007902
1.0000908400007233
1.0000908400022519
1.0000908400007182
1.0000908400133224
1.0000908400005712
1.0000908395948671
1.0000908399977495
1.0000908249428504
1.0000908399734469
1.0000906233793116
1.0000908400351098
1.0000892547447451
1.0000908403779656
1.0000848110417238
1.0018588251154583
1.0012061684513576
1.001859338608708
1.0017265942208755
1.0018592572237361
1.0018442056568433
1.0018592412794003
1.0018581887912263
1.0018592402523221
1.001859191035517
1.0018592402124473
1.0018592385791945
1.0018592402113577
1.0018592401711521
1.0018592402113347
1.0018592402098183
1.0018592402113347
1.0018592401711521
1.0018592402113577
1.0018592385791945
1.0018592402124473
1.001859191035517
1.0018592402523221
1.0018581887912263
1.0018592412794003
1.0018442056568433
1.0018592572237361
1.0017265942208755
1.001859338608708
1.0012061684513576
1.0018588251154583
1.0001584362191025
1.0002971500758031
1.0002971440173505
1.0002971505644551
1.000297231931031
1.0002971504982978
1.000297167666409
1.0002971504904514
1.0002971521631527
1.0002971504901133
1.0002971505880089
1.0002971504901046
1.0002971504939593
1.0002971504901046
1.0002971504902136
1.0002971504901046
1.0002971504901093
1.0002971504901046
1.0002971504902136
1.0002971504901046
1.0002971504939593
1.0002971504901046
1.0002971505880089
1.0002971504901133
1.0002971521631527
1.0002971504904514
1.000297167666409
1.0002971504982978
1.000297231931031
1.0002971505644551
1.0002971440173505
1.0002971500758031
1.0002959571135133
1.0009907229622326
1.0008533800288688
1.0009907749842253
1.000968830068915
1.0009907724610083
1.0009887715628691
1.00099077169488
1.0009906562016166
1.0009907716437039
1.0009907670941232
1.0009907716417454
1.0009907715126409
1.0009907716416944
1.0009907716389479
1.0009907716416939
1.0009907716416024
1.0009907716416939
1.0009907716389479
1.0009907716416944
1.0009907715126409
1.0009907716417454
1.0009907670941232
1.0009907716437039
1.0009906562016166
1.00099077169488
1.0009887715628691
1.0009907724610083
1.000968830068915
1.0009907749842253
1.0008533800288688
1.0009907229622326
1.0005527786369237
1.0010199698593094
1.0010247430405275
1.0010199699313767
1.0010209424763554
1.0010199699242124
1.0010200852198003
1.001019969922982
1.0010199785201725
1.0010199699229165
1.0010199703551406
1.0010199699229132
1.0010199699383777
1.0010199699229132
1.0010199699233222
1.0010199699229132
1.001019969922931
1.0010199699229132
1.0010199699233222
1.0010199699229132
1.0010199699383777
1.0010199699229132
1.0010199703551406
1.0010199699229165
1.0010199785201725
1.001019969922982
1.0010200852198003
1.0010199699242124
1.0010209424763554
1.0010199699313767
1.0010247430405275
1.0010199698593094
1.001032231036755
1.0019645808046465
1.0019576329032969
1.0019645837992166
1.001964311677026
1.0019645837860129
1.0019646381524376
1.0019645837612461
1.0019645917519109
1.0019645837594973
1.0019645842842355
1.0019645837594306
1.0019645837810252
1.0019645837594289
1.0019645837600522
1.0019645837594289
1.0019645837594564
1.0019645837594289
1.0019645837600522
1.0019645837594289
1.0019645837810252
1.0019645837594306
1.0019645842842355
1.0019645837594973
1.0019645917519109
1.0019645837612461
1.0019646381524376
1.0019645837860129
1.001964311677026
1.0019645837992166
1.0019576329032969
1.0019645808046465
1.0019267346633276
1.0035508279821048
1.0035672165439455
1.0035508283300727
1.0035541330103221
1.0035508282778292
1.0035512174186689
1.0035508282687533
1.003550857159105
1.0035508282682215
1.0035508297161086
1.0035508282682024
1.0035508283198671
1.0035508282682017
1.0035508282695691
1.0035508282682017
1.0035508282682575
1.0035508282682017
1.0035508282695691
1.0035508282682017
1.0035508283198671
1.0035508282682024
1.0035508297161086
1.0035508282682215
1.003550857159105
1.0035508282687533
1.0035512174186689
1.0035508282778292
1.0035541330103221
1.0035508283300727
1.0035672165439455
1.0035508279821048
1.0035936025814203
1.006622877442334
1.0066506778874111
1.0066228785480191
1.0066286207473307
1.0066228783822668
1.0066235634668435
1.0066228783534898
1.0066229295495546
1.0066228783518025
1.0066228809252729
1.0066228783517415
1.0066228784436673
1.0066228783517397
1.0066228783541737
1.0066228783517397
1.0066228783518383
1.0066228783517397
1.0066228783541737
1.0066228783517397
1.0066228784436673
1.0066228783517415
1.0066228809252729
1.0066228783518025
1.0066229295495546
1.0066228783534898
1.0066235634668435
1.0066228783822668
1.0066286207473307
1.0066228785480191
1.0066506778874111
1.006622877442334
1.006692850924285
1.0123032683141846
1.0123529638687976
1.012303271060234
1.0123134145688857
1.0123032705279571
1.012304473486022
1.0123032704426216
1.0123033599884705
1.012303270437708
1.0123032749238161
1.0123032704375332
1.0123032705972459
1.0123032704375281
1.0123032704417438
1.0123032704375281
1.0123032704376984
1.0123032704375281
1.0123032704417438
1.0123032704375281
1.0123032705972459
1.0123032704375332
1.0123032749238161
1.012303270437708
1.0123033599884705
1.0123032704426216
1.012304473486022
1.0123032705279571
1.0123134145688857
1.012303271060234
1.0123529638687976
1.0123032683141846
1.0124316508531859
1.0227637491691628
1.0228463838246449
1.0227637561698129
1.0227807176171266
1.022763754586921
1.0227657701347563
1.0227637543457082
1.0227639041881331
1.022763754332032
1.0227637618126355
1.02276375433155
1.0227637545965427
1.0227637543315375
1.0227637543384873
1.0227637543315375
1.0227637543318164
1.0227637543315375
1.0227637543384873
1.0227637543315375
1.0227637545965427
1.02276375433155
1.0227637618126355
1.022763754332032
1.0227639041881331
1.0227637543457082
1.0227657701347563
1.022763754586921
1.0227807176171266
1.0227637561698129
1.0228463838246449
1.0227637491691628
1.0229773699100257
1.0417396304755822
1.0418720717213492
1.0417396468978255
1.0417668666714337
1.0417396424937773
1.0417428682882126
1.0417396418614118
1.0417398800954958
1.0417396418263272
1.0417396536090939
1.0417396418251104
1.0417396422378589
1.0417396418250777
1.0417396418357694
1.0417396418250775
1.0417396418255005
1.0417396418250775
1.0417396418357694
1.0417396418250777
1.0417396422378589
1.0417396418251104
1.0417396536090939
1.0417396418263272
1.0417398800954958
1.0417396418614118
1.0417428682882126
1.0417396424937773
1.0417668666714337
1.0417396468978255
1.0418720717213492
1.0417396304755822
1.0420877279156189
1.0753007046403338
1.0755039026124269
1.0753007395903598
1.0753422919360012
1.0753007283396936
1.0753055995512992
1.0753007268319523
1.075301080861339
1.0753007267508636
1.0753007439207414
1.0753007267481109
1.0753007273364477
1.075300726748043
1.0753007267629233
1.0753007267480419
1.0753007267486148
1.0753007267480419
1.0753007267629233
1.075300726748043
1.0753007273364477
1.0753007267481109
1.0753007439207414
1.0753007267508636
1.075301080861339
1.0753007268319523
1.0753055995512992
1.0753007283396936
1.0753422919360012
1.0753007395903598
1.0755039026124269
1.0753007046403338
1.0758581800212434
1.1320802544338247
1.1323770841144514
1.1320803204458079
1.1321401546537186
1.1320802946792936
1.1320871443579359
1.1320802914913608
1.1320807740140646
1.1320802913272643
1.1320803138956443
1.1320802913218913
1.1320802920650832
1.1320802913217618
1.1320802913397827
1.1320802913217596
1.1320802913224248
1.1320802913217596
1.1320802913397827
1.1320802913217618
1.1320802920650832
1.1320802913218913
1.1320803138956443
1.1320802913272643
1.1320807740140646
1.1320802914913608
1.1320871443579359
1.1320802946792936
1.1321401546537186
1.1320803204458079
1.1323770841144514
1.1320802544338247
1.1329642401978293
1.2213242668146886
1.2217339043432895
1.2213243746865536
1.2214048202608367
1.2213243234101441
1.2213331453367766
1.2213243176319843
1.2213249064716607
1.2213243173529078
1.2213243432726899
1.2213243173442823
1.2213243181441196
1.2213243173440884
1.2213243173622057
1.2213243173440842
1.2213243173447084
1.2213243173440842
1.2213243173622057
1.2213243173440884
1.2213243181441196
1.2213243173442823
1.2213243432726899
1.2213243173529078
1.2213249064716607
1.2213243176319843
1.2213331453367766
1.2213243234101441
1.2214048202608367
1.2213243746865536
1.2217339043432895
1.2213242668146886
1.2227001388253087
1.3466081932712195
1.3471361383403568
1.3466083428203215
1.3467073332790793
1.3466082589457919
1.3466183824956794
1.3466082505077248
1.3466088732532164
1.346608250135916
1.3466082752440669
1.3466082501253716
1.3466082508326132
1.3466082501251542
1.3466082501397481
1.3466082501251515
1.3466082501256071
1.3466082501251515
1.3466082501397481
1.3466082501251542
1.3466082508326132
1.3466082501253716
1.3466082752440669
1.346608250135916
1.3466088732532164
1.3466082505077248
1.3466183824956794
1.3466082589457919
1.3467073332790793
1.3466083428203215
1.3471361383403568
1.3466081932712195
1.3486451353339457
1.497288455342455
1.4979043416953848
1.4972886241187631
1.4973958978445994
1.4972885210677938
1.497298506497267
1.4972885119470036
1.4972890669693562
1.497288511587332
1.4972885317512392
1.4972885115781331
1.497288512089396
1.4972885115779611
1.4972885115874563
1.4972885115779586
1.4972885115782284
1.4972885115779586
1.4972885115874563
1.4972885115779611
1.497288512089396
1.4972885115781331
1.4972885317512392
1.497288511587332
1.4972890669693562
1.4972885119470036
1.497298506497267
1.4972885210677938
1.4973958978445994
1.4972886241187631
1.4979043416953848
1.497288455342455
1.5
1.6482926116620795
1.6489159201115715
1.6482927608626956
1.648391858689727
1.6482926716019359
1.6483010072457105
1.648292664589003
1.6482930827809463
1.6482926643400855