# vtk DataFile Version 3.0
Euler density step 162
ASCII
DATASET STRUCTURED_POINTS
DIMENSIONS 32 32 32
ORIGIN 0 0 0
SPACING 0.3125 0.3125 0.3125
POINT_DATA 32768
SCALARS density double 1
LOOKUP_TABLE default
1.0025285453085833
1.0016578611065754
1.0025290811141414
1.002390301417484
1.0025289384030012
1.0025165524998978
1.0025289256105927
1.0025282441908694
1.0025289251696829
1.0025289002046258
1.0025289251608822
1.0025289245161868
1.002528925160777
1.0025289251485339
1.0025289251607756
1.0025289251604237
1.0025289251607756
1.0025289251485339
1.002528925160777
1.0025289245161868
1.0025289251608822
1.0025289002046258
1.0025289251696829
1.0025282441908694
1.0025289256105927
1.0025165524998978
1.0025289384030012
1.002390301417484
1.0025290811141414
1.0016578611065754
1.0025285453085833
1.0000453978687025
1.0000873762754543
1.0000872479825238
1.0000873761366027
1.00008741972979
1.0000873761630271
1.0000873845059008
1.00008737616773
1.0000873768318514
1.0000873761679703
1.0000873761990021
1.0000873761679763
1.0000873761689399
1.0000873761679763
1.0000873761679991
1.0000873761679763
1.0000873761679774
1.0000873761679763
1.0000873761679991
1.0000873761679763
1.0000873761689399
1.0000873761679763
1.0000873761990021
1.0000873761679703
1.0000873768318514
1.00008737616773
1.0000873845059008
1.0000873761630271
1.00008741972979
1.0000873761366027
1.0000872479825238
1.0000873762754543
1.0000848110417238
1.0011512569172367
1.0008888070958115
1.0011513479560725
1.001117188771234
1.0011513413162827
1.0011488352517901
1.001151340598371
1.0011512251911943
1.0011513405753525
1.001151336977778
1.0011513405749808
1.0011513404948869
1.0011513405749788
1.0011513405736536
1.0011513405749788
1.0011513405749444
1.0011513405749788
1.0011513405736536
1.0011513405749788
1.0011513404948869
1.0011513405749808
1.001151336977778
1.0011513405753525
1.0011512251911943
1.001151340598371
1.0011488352517901
1.0011513413162827
1.001117188771234
1.0011513479560725
1.0008888070958115
1.0011512569172367
1.0001584362191025
1.0002950546096001
1.0002956365118234
1.0002950546081075
1.0002951591999951
1.0002950546083549
1.000295064592237
1.0002950546085845
1.0002950551859566
1.0002950546085982
1.0002950546307645
1.0002950546085987
1.0002950546092015
1.0002950546085987
1.0002950546086116
1.0002950546085987
1.0002950546085987
1.0002950546085987
1.0002950546086116
1.0002950546085987
1.0002950546092015
1.0002950546085987
1.0002950546307645
1.0002950546085982
1.0002950551859566
1.0002950546085845
1.000295064592237
1.0002950546083549
1.0002951591999951
1.0002950546081075
1.0002956365118234
1.0002950546096001
1.0002959571135133
1.0007108902689072
1.0006766904867965
1.000710895629713
1.0007073218491656
1.0007108955696065
1.0007106830543755
1.0007108955542072
1.0007108875489228
1.0007108955537691
1.0007108953492148
1.0007108955537662
1.0007108955500632
1.0007108955537665
1.0007108955537187
1.0007108955537665
1.0007108955537656
1.0007108955537665
1.0007108955537187
1.0007108955537665
1.0007108955500632
1.0007108955537662
1.0007108953492148
1.0007108955537691
1.0007108875489228
1.0007108955542072
1.0007106830543755
1.0007108955696065
1.0007073218491656
1.000710895629713
1.0006766904867965
1.0007108902689072
1.0005527786369237
1.0010266612729686
1.0010288733582264
1.0010266612770466
1.0010269926272535
1.0010266612764618
1.0010266899186029
1.0010266612764049
1.0010266628476614
1.0010266612764025
1.0010266613350962
1.0010266612764025
1.0010266612779744
1.0010266612764025
1.0010266612764338
1.0010266612764025
1.0010266612764036
1.0010266612764025
1.0010266612764338
1.0010266612764025
1.0010266612779744
1.0010266612764025
1.0010266613350962
1.0010266612764025
1.0010266628476614
1.0010266612764049
1.0010266899186029
1.0010266612764618
1.0010269926272535
1.0010266612770466
1.0010288733582264
1.0010266612729686
1.001032231036755
1.0019306773694006
1.0019321120617892
1.0019306775513757
1.0019310511639379
1.0019306775521477
1.0019307178318408
1.0019306775518189
1.0019306800115313
1.0019306775518089
1.0019306776491079
1.0019306775518089
1.0019306775545014
1.0019306775518089
1.0019306775518639
1.0019306775518089
1.0019306775518109
1.0019306775518089
1.0019306775518639
1.0019306775518089
1.0019306775545014
1.0019306775518089
1.0019306776491079
1.0019306775518089
1.0019306800115313
1.0019306775518189
1.0019307178318408
1.0019306775521477
1.0019310511639379
1.0019306775513757
1.0019321120617892
1.0019306773694006
1.0019267346633276
1.003574819281579
1.003582234276837
1.003574819339389
1.0035759245280227
1.0035748193327214
1.0035749145000414
1.0035748193319622
1.0035748245344029
1.0035748193319307
1.0035748195255998
1.0035748193319303
1.0035748193371006
1.0035748193319303
1.0035748193320333
1.0035748193319303
1.0035748193319327
1.0035748193319303
1.0035748193320333
1.0035748193319303
1.0035748193371006
1.0035748193319303
1.0035748195255998
1.0035748193319307
1.0035748245344029
1.0035748193319622
1.0035749145000414
1.0035748193327214
1.0035759245280227
1.003574819339389
1.003582234276837
1.003574819281579
1.0035936025814203
1.0066598674434641
1.0066731627756209
1.006659867627274
1.0066618587625589
1.0066598676048846
1.0066600393284602
1.0066598676023857
1.006659876986967
1.0066598676022867
1.0066598679511685
1.0066598676022842
1.006659867611581
1.0066598676022842
1.0066598676024681
1.0066598676022842
1.0066598676022895
1.0066598676022842
1.0066598676024681
1.0066598676022842
1.006659867611581
1.0066598676022842
1.0066598679511685
1.0066598676022867
1.006659876986967
1.0066598676023857
1.0066600393284602
1.0066598676048846
1.0066618587625589
1.006659867627274
1.0066731627756209
1.0066598674434641
1.006692850924285
1.0123720399947422
1.0123959441530233
1.0123720405363812
1.0123756036016485
1.0123720404615995
1.0123723466406152
1.0123720404535872
1.0123720571265371
1.0123720404532683
1.0123720410707573
1.0123720404532595
1.0123720404696464
1.012372040453259
1.0123720404535845
1.012372040453259
1.0123720404532701
1.012372040453259
1.0123720404535845
1.012372040453259
1.0123720404696464
1.0123720404532595
1.0123720410707573
1.0123720404532683
1.0123720571265371
1.0123720404535872
1.0123723466406152
1.0123720404615995
1.0123756036016485
1.0123720405363812
1.0123959441530233
1.0123720399947422
1.0124316508531859
1.0228742040594005
1.0229158982641962
1.0228742055933455
1.0228804078774985
1.0228742053526301
1.0228747363860431
1.0228742053279487
1.0228742340969941
1.022874205326983
1.0228742063858114
1.0228742053269593
1.0228742053548605
1.0228742053269586
1.0228742053275068
1.0228742053269586
1.022874205326975
1.0228742053269586
1.0228742053275068
1.0228742053269586
1.0228742053548605
1.0228742053269593
1.0228742063858114
1.022874205326983
1.0228742340969941
1.0228742053279487
1.0228747363860431
1.0228742053526301
1.0228804078774985
1.0228742055933455
1.0229158982641962
1.0228742040594005
1.0229773699100257
1.0419123211385783
1.0419831300550273
1.0419123251946003
1.0419227951090972
1.0419123244529627
1.0419132135193681
1.0419123243810013
1.0419123720495553
1.0419123243782407
1.0419123261117207
1.0419123243781721
1.0419123244232507
1.0419123243781712
1.0419123243790447
1.0419123243781709
1.0419123243781967
1.0419123243781709
1.0419123243790447
1.0419123243781712
1.0419123244232507
1.0419123243781721
1.0419123261117207
1.0419123243782407
1.0419123720495553
1.0419123243810013
1.0419132135193681
1.0419123244529627
1.0419227951090972
1.0419123251946003
1.0419831300550273
1.0419123211385783
1.0420877279156189
1.0755631536387893
1.0756795812178397
1.0755631634969187
1.0755801639063907
1.0755631613455896
1.075564581975762
1.075563161150475
1.0755632358631544
1.0755631611432042
1.0755631638015319
1.0755631611430247
1.0755631612105345
1.0755631611430225
1.0755631611442962
1.0755631611430225
1.0755631611430592
1.0755631611430225
1.0755631611442962
1.0755631611430225
1.0755631612105345
1.0755631611430247
1.0755631638015319
1.0755631611432042
1.0755632358631544
1.075563161150475
1.075564581975762
1.0755631613455896
1.0755801639063907
1.0755631634969187
1.0756795812178397
1.0755631536387893
1.0758581800212434
1.1324683236554651
1.1326525106381906
1.1324683451939617
1.1324946646444112
1.1324683394481294
1.132470478543983
1.1324683389676733
1.1324684477976508
1.1324683389504837
1.1324683426812023
1.1324683389500785
1.1324683390410724
1.1324683389500712
1.1324683389517156
1.1324683389500712
1.1324683389501164
1.1324683389500712
1.1324683389517156
1.1324683389500712
1.1324683390410724
1.1324683389500785
1.1324683426812023
1.1324683389504837
1.1324684477976508
1.1324683389676733
1.132470478543983
1.1324683394481294
1.1324946646444112
1.1324683451939617
1.1326525106381906
1.1324683236554651
1.1329642401978293
1.2218687237859929
1.2221464773471655
1.2218687647887758
1.22190718457026
1.2218687510721358
1.221871738932671
1.2218687500308629
1.2218688942171316
1.2218687499957361
1.2218687546549041
1.2218687499949457
1.221868750101591
1.2218687499949326
1.2218687499967367
1.2218687499949321
1.2218687499949794
1.2218687499949321
1.2218687499967367
1.2218687499949326
1.221868750101591
1.2218687499949457
1.2218687546549041
1.2218687499957361
1.2218688942171316
1.2218687500308629
1.221871738932671
1.2218687510721358
1.22190718457026
1.2218687647887758
1.2221464773471655
1.2218687237859929
1.2227001388253087
1.3472946827487986
1.3476874547904176
1.3472947489602787
1.3473465752751885
1.3472947211945168
1.3472984988094276
1.3472947193193499
1.3472948882831843
1.3472947192613043
1.3472947242862199
1.3472947192601017
1.3472947193654694
1.3472947192600839
1.3472947192617122
1.3472947192600839
1.3472947192601206
1.3472947192600839
1.3472947192617122
1.3472947192600839
1.3472947193654694
1.3472947192601017
1.3472947242862199
1.3472947192613043
1.3472948882831843
1.3472947193193499
1.3472984988094276
1.3472947211945168
1.3473465752751885
1.3472947489602787
1.3476874547904176
1.3472946827487986
1.3486451353339457
1.49800173877441
1.4985049968317368
1.4980018262957546
1.4980640939416214
1.4980017828866983
1.4980059617262678
1.4980017803211962
1.4980019507661968
1.4980017802499934
1.4980017848478639
1.4980017802486625
1.4980017803358436
1.4980017802486441
1.4980017802498582
1.4980017802486441
1.49800178024867
1.4980017802486441
1.4980017802498582
1.4980017802486441
1.4980017803358436
1.4980017802486625
1.4980017848478639
1.4980017802499934
1.4980019507661968
1.4980017803211962
1.4980059617262678
1.4980017828866983
1.4980640939416214
1.4980018262957546
1.4985049968317368
1.49800173877441
1.5
1.6488375190541347
1.6493963650385195
1.6488376095436039
1.6489018046973316
1.6488375613030906
1.6488415108786316
1.6488375587971091
1.6488377056945274
1.6488375587347999
1.6488375623391345
1.6488375587337487
1.6488375587958275
1.6488375587337343
1.648837558734519
1.6488375587337341
1.64883755873375
1.6488375587337341
1.648837558734519
1.6488375587337343
1.6488375587958275
1.6488375587337487
1.6488375623391345
1.6488375587347999
1.6488377056945274
1.6488375587971091
1.6488415108786316
1.6488375613030906
1.6489018046973316
1.6488376095436039
1.6493963650385195
1.6488375190541347
1.6513548646660543
1.7746877703245125
1.7752135592320542
1.7746878432356405
1.7747440589208816
1.774687805533111
1.7746910075214044
1.7746878037680172
1.77468791388916
1.774687803727929
1.7746878062258769
1.7746878037273077
1.7746878037670837
1.7746878037272995
1.7746878037277634
1.7746878037272995
1.7746878037273084
1.7746878037272995
1.7746878037277634
1.7746878037272995
1.7746878037670837
1.7746878037273077
1.7746878062258769
1.774687803727929
1.77468791388916
1.7746878037680172
1.7746910075214044
1.774687805533111
1.7747440589208816
1.7746878432356405
1.7752135592320542
1.7746877703245125
1.7772998611746911
1.8647789743734671
1.8652027211641018
1.8647790219768743
1.8648216382318525
1.8647790001287363
1.8647812841113827
1.8647789991778392
1.864779073209992
1.8647789991576118
1.8647790007425311
1.8647789991573152
1.8647789991811605
1.8647789991573127
1.8647789991575763
1.8647789991573127
1.8647789991573163
1.8647789991573127
1.8647789991575763
1.8647789991573127
1.8647789991811605
1.8647789991573152
1.8647790007425311
1.8647789991576118
1.864779073209992
1.8647789991778392
1.8647812841113827
1.8647790001287363
1.8648216382318525
1.8647790219768743
1.8652027211641018
1.8647789743734671
1.8670357598021707
1.9224604264560889
1.9227616372757166
1.9224604524951854
1.9224893199050677
1.9224604423982186
1.9224619218977277
1.922460441978866
1.9224604879843206
1.9224604419703348
1.9224604429172862
1.9224604419702149
1.9224604419839304
1.9224604419702143
1.9224604419703593
1.9224604419702143
1.922460441970216
1.9224604419702143
1.9224604419703593
1.9224604419702143
1.9224604419839304
1.9224604419702149
1.9224604429172862
1.9224604419703348
1.9224604879843206
1.922460441978866
1.9224619218977277
1.9224604423982186
1.9224893199050677
1.9224604524951854
1.9227616372757166
1.9224604264560889
1.9241418199787566
1.9567898227708824
1.9569847249719909
1.9567898349407438
1.9568078584421658
1.9567898309713714
1.9567907263852287
1.9567898308110931
1.9567898578956067
1.9567898308079268
1.9567898313515153
1.956789830807883
1.9567898308155722
1.9567898308078822
1.9567898308079639
1.9567898308078822
1.9567898308078844
1.9567898308078822
1.9567898308079639
1.9567898308078822
1.9567898308155722
1.956789830807883
1.9567898313515153
1.9567898308079268
1.9567898578956067
1.9567898308110931
1.9567907263852287
1.9567898309713714
1.9568078584421658
1.9567898349407438
1.9569847249719909
1.9567898227708824
1.9579122720843811
1.9763293280349656
1.9764472908417485
1.9763293330078475
1.976339971151382
1.9763293316127435
1.9763298492655414
1.9763293315572992
1.9763293469415224
1.9763293315562234
1.9763293318602115
1.9763293315562098
1.9763293315604498
1.9763293315562096
1.9763293315562531
1.9763293315562096
1.97632933155621
1.9763293315562096
1.9763293315562531
1.9763293315562096
1.9763293315604498
1.9763293315562098
1.9763293318602115
1.9763293315562234
1.9763293469415224
1.9763293315572992
1.9763298492655414
1.9763293316127435
1.976339971151382
1.9763293330078475
1.9764472908417485
1.9763293280349656
1.9770226300899743
1.9871620381136526
1.9872302952324417
1.9871620399402432
1.9871680918470471
1.9871620394852487
1.9871623300668697
1.9871620394673175
1.9871620480096586
1.9871620394669745
1.9871620396342033
1.9871620394669696
1.9871620394692822
1.9871620394669696
1.9871620394669929
1.9871620394669696
1.9871620394669696
1.9871620394669696
1.9871620394669929
1.9871620394669696
1.9871620394692822
1.9871620394669696
1.9871620396342033
1.9871620394669745
1.9871620480096586
1.9871620394673175
1.9871623300668697
1.9871620394852487
1.9871680918470471
1.9871620399402432
1.9872302952324417
1.9871620381136526
1.9875683491468141
1.9930812960621827
1.9931192141019423
1.9930812966941025
1.9930846390788757
1.9930812965531821
1.9930814561556123
1.9930812965476248
1.9930813012163062
1.9930812965475195
1.9930812966385079
1.9930812965475178
1.9930812965487705
1.9930812965475178
1.9930812965475306
1.9930812965475178
1.993081296547518
1.9930812965475178
1.9930812965475306
1.9930812965475178
1.9930812965487705
1.9930812965475178
1.9930812966385079
1.9930812965475195
1.9930813012163062
1.9930812965476248
1.9930814561556123
1.9930812965531821
1.9930846390788757
1.9930812966941025
1.9931192141019423
1.9930812960621827
1.993307149075715
1.996279132050707
1.9963003543220277
1.9962791322488123
1.9962809803524311
1.9962791322059874
1.996279219779763
1.9962791322043116
1.9962791347527566
1.9962791322042799
1.9962791322537603
1.9962791322042797
1.9962791322049607
1.9962791322042797
1.9962791322042868
1.9962791322042797
1.9962791322042799
1.9962791322042797
1.9962791322042868
1.9962791322042797
1.9962791322049607
1.9962791322042797
1.9962791322537603
1.9962791322042799
1.9962791347527566
1.9962791322043116
1.996279219779763
1.9962791322059874
1.9962809803524311
1.9962791322488123
1.9963003543220277
1.996279132050707
1.9964063974185799
1.9980821380814668
1.9980830001878622
1.9980821389215697
1.9980824952258918
1.9980821388916705
1.9980821645526721
1.9980821388896124
1.9980821398046358
1.9980821388895651
1.9980821389095496
1.9980821388895644
1.9980821388898613
1.9980821388895644
1.9980821388895675
1.9980821388895644
1.9980821388895644
1.9980821388895644
1.9980821388895675
1.9980821388895644
1.9980821388898613
1.9980821388895644
1.9980821389095496
1.9980821388895651
1.9980821398046358
1.9980821388896124
1.9980821645526721
1.9980821388916705
1.9980824952258918
1.9980821389215697
1.9980830001878622
1.9980821380814668
1.9980732653366724
1.9989291553745741
1.9989357779438131
1.9989291553810904
1.9989297276414211
1.9989291553787198
1.9989291823170758
1.9989291553786761
1.9989291561584182
1.9989291553786761
1.9989291553937505
1.9989291553786761
1.9989291553788815
1.9989291553786761
1.9989291553786777
1.9989291553786761
1.9989291553786761
1.9989291553786761
1.9989291553786777
1.9989291553786761
1.9989291553788815
1.9989291553786761
1.9989291553937505
1.9989291553786761
1.9989291561584182
1.9989291553786761
1.9989291823170758
1.9989291553787198
1.9989297276414211
1.9989291553810904
1.9989357779438131
1.9989291553745741
1.9989677689632452
2.0002140968873929
2.0000793628044424
2.0002141193744407
2.000203874157211
2.0002141174177472
2.0002136967272346
2.0002141173184076
2.0002141066608665
2.0002141173162453
2.0002141171348473
2.000214117316212
2.0002141173140142
2.000214117316212
2.0002141173161929
2.000214117316212
2.000214117316212
2.000214117316212
2.0002141173161929
2.000214117316212
2.0002141173140142
2.000214117316212
2.0002141171348473
2.0002141173162453
2.0002141066608665
2.0002141173184076
2.0002136967272346
2.0002141174177472
2.000203874157211
2.0002141193744407
2.0000793628044424
2.0002140968873929
1.9994472213630763
1.999691613075927
1.9996945925988414
1.9996916130082925
1.9996919084534222
1.9996916130543423
1.9996916281871275
1.9996916130570446
1.9996916135201928
1.9996916130571145
1.999691613066424
1.9996916130571156
1.9996916130572475
1.9996916130571156
1.9996916130571174
1.9996916130571156
1.9996916130571156
1.9996916130571156
1.9996916130571174
1.9996916130571156
1.9996916130572475
1.9996916130571156
1.999691613066424
1.9996916130571145
1.9996916135201928
1.9996916130570446
1.9996916281871275
1.9996916130543423
1.9996919084534222
1.9996916130082925
1.9996945925988414
1.999691613075927
1.999704042886487
2.0030892583587327
2.0023708441334733
2.0030893767885547
2.0030183257097978
2.0030893067643185
2.0030856393543943
2.0030893038986552
2.0030891905951091
2.0030893038406687
2.003089301542246
2.0030893038398663
2.0030893038072248
2.0030893038398583
2.0030893038395172
2.0030893038398583
2.0030893038398538
2.0030893038398583
2.0030893038395172
2.0030893038398583
2.0030893038072248
2.0030893038398663
2.003089301542246
2.0030893038406687
2.0030891905951091
2.0030893038986552
2.0030856393543943
2.0030893067643185
2.0030183257097978
2.0030893767885547
2.0023708441334733
2.0030892583587327
1.9998415637808975
1.9999151889582765
1.9999151889582765
1.9999151889582765
1.9999151889582765
1.9999151889582765
1.9999151889582765
1.9999151889582765
1.9999151889582765
1.9999151889582765
1.9999151889582765
1.9999151889582765
1.9999151889582765
1.9999151889582765
1.9999151889582765
1.9999151889582765
1.9999151889582765
1.9999151889582765
1.9999151889582765
1.9999151889582765
1.9999151889582765
1.9999151889582765
1.9999151889582765
1.9999151889582765
1.9999151889582765
1.9999151889582765
1.9999151889582765
1.9999151889582765
1.9999151889582765
1.9999151889582765
1.9999151889582765
1.9999151889582765
1.9999151889582765
1.0042884213558048
1.0031424544779362
1.0042895097918776
1.0040595558487317
1.00428896349126
1.0042639315632911
1.0042889016977767
1.0042872698628031
1.0042888987045155
1.0042888291946153
1.0042888986126097
1.004288896549594
1.0042888986105762
1.0042888985658323
1.0042888986105418
1.0042888986090734
1.0042888986105418
1.0042888985658323
1.0042888986105762
1.004288896549594
1.0042888986126097
1.0042888291946153
1.0042888987045155
1.0042872698628031
1.0042889016977767
1.0042639315632911
1.00428896349126
1.0040595558487317
1.0042895097918776
1.0031424544779362
1.0042884213558048
1.0000453978687025
1.0000903929922835
1.0000891148623365
1.00009039293146
1.0000902421652076
1.0000903928906451
1.0000903829291927
1.0000903928951432
1.0000903925128188
1.0000903928955964
1.0000903928873448
1.0000903928956155
1.0000903928955509
1.000090392895616
1.0000903928956177
1.000090392895616
1.000090392895616
1.000090392895616
1.0000903928956177
1.000090392895616
1.0000903928955509
1.0000903928956155
1.0000903928873448
1.0000903928955964
1.0000903925128188
1.0000903928951432
1.0000903829291927
1.0000903928906451
1.0000902421652076
1.00009039293146
1.0000891148623365
1.0000903929922835
1.0000848110417238
1.0015018364786281
1.0010727304999545
1.0015020928592344
1.0014340896709948
1.0015020552647966
1.0014961224996641
1.0015020502175236
1.0015017314203543
1.0015020499721548
1.001502038514301
1.0015020499648009
1.0015020496726323
1.0015020499646456
1.0015020499591232
1.0015020499646425
1.0015020499644833
1.0015020499646425
1.0015020499591232
1.0015020499646456
1.0015020496726323
1.0015020499648009
1.001502038514301
1.0015020499721548
1.0015017314203543
1.0015020502175236
1.0014961224996641
1.0015020552647966
1.0014340896709948
1.0015020928592344
1.0010727304999545
1.0015018364786281
1.0001584362191025
1.0002963095119723
1.0002964504246461
1.0002963097070905
1.0002963705995964
1.0002963096833084
1.0002963179427766
1.0002963096811004
1.0002963102651656
1.0002963096810191
1.0002963097066639
1.0002963096810176
1.0002963096817847
1.0002963096810176
1.000296309681034
1.0002963096810176
1.0002963096810178
1.0002963096810176
1.000296309681034
1.0002963096810176
1.0002963096817847
1.0002963096810176
1.0002963097066639
1.0002963096810191
1.0002963102651656
1.0002963096811004
1.0002963179427766
1.0002963096833084
1.0002963705995964
1.0002963097070905
1.0002964504246461
1.0002963095119723
1.0002959571135133
1.0008220495426101
1.0007528624883315
1.0008220697716066
1.0008134736355176
1.0008220688192995
1.0008214666290902
1.0008220686321034
1.0008220420214267
1.0008220686225906
1.0008220678218538
1.0008220686223095
1.0008220686049953
1.0008220686223039
1.0008220686220246
1.0008220686223039
1.0008220686222959
1.0008220686223039
1.0008220686220246
1.0008220686223039
1.0008220686049953
1.0008220686223095
1.0008220678218538
1.0008220686225906
1.0008220420214267
1.0008220686321034
1.0008214666290902
1.0008220688192995
1.0008134736355176
1.0008220697716066
1.0007528624883315
1.0008220495426101
1.0005527786369237
1.0010228134797383
1.00102590660172
1.0010228135043706
1.0010233272228126
1.0010228135015369
1.0010228619263586
1.0010228135012016
1.0010228163412458
1.0010228135011889
1.0010228136127957
1.0010228135011878
1.0010228135042951
1.0010228135011878
1.0010228135012507
1.0010228135011878
1.0010228135011907
1.0010228135011878
1.0010228135012507
1.0010228135011878
1.0010228135042951
1.0010228135011878
1.0010228136127957
1.0010228135011889
1.0010228163412458
1.0010228135012016
1.0010228619263586
1.0010228135015369
1.0010233272228126
1.0010228135043706
1.00102590660172
1.0010228134797383
1.001032231036755
1.0019380940428277
1.0019377034309926
1.0019380949489229
1.0019384192909644
1.0019380949375145
1.0019381474331497
1.0019380949324377
1.0019380987642583
1.0019380949321701
1.0019380951006225
1.0019380949321619
1.0019380949371619
1.0019380949321617
1.0019380949322696
1.0019380949321617
1.0019380949321659
1.0019380949321617
1.0019380949322696
1.0019380949321617
1.0019380949371619
1.0019380949321619
1.0019380951006225
1.0019380949321701
1.0019380987642583
1.0019380949324377
1.0019381474331497
1.0019380949375145
1.0019384192909644
1.0019380949489229
1.0019377034309926
1.0019380940428277
1.0019267346633276
1.0035607748940032
1.0035713999220022
1.0035607750361648
1.003562526158895
1.0035607750115181
1.0035609392541476
1.0035607750086946
1.0035607846074519
1.00356077500857
1.0035607753847202
1.0035607750085671
1.0035607750190101
1.0035607750085671
1.0035607750087805
1.0035607750085671
1.0035607750085738
1.0035607750085671
1.0035607750087805
1.0035607750085671
1.0035607750190101
1.0035607750085671
1.0035607753847202
1.00356077500857
1.0035607846074519
1.0035607750086946
1.0035609392541476
1.0035607750115181
1.003562526158895
1.0035607750361648
1.0035713999220022
1.0035607748940032
1.0035936025814203
1.0066360899738123
1.0066547587871906
1.0066360904212155
1.0066392040948751
1.0066360903411185
1.0066363841015407
1.0066360903320277
1.0066361075411208
1.0066360903316303
1.006636091006339
1.0066360903316189
1.006636090350344
1.0066360903316187
1.0066360903320022
1.0066360903316187
1.0066360903316309
1.0066360903316187
1.0066360903320022
1.0066360903316187
1.006636090350344
1.0066360903316189
1.006636091006339
1.0066360903316303
1.0066361075411208
1.0066360903320277
1.0066363841015407
1.0066360903411185
1.0066392040948751
1.0066360904212155
1.0066547587871906
1.0066360899738123
1.006692850924285
1.012329008990893
1.0123622426430636
1.0123290101881568
1.0123345245415414
1.0123290099320941
1.0123295285688165
1.012329009904315
1.0123290402003171
1.0123290099031164
1.0123290110872398
1.0123290099030835
1.0123290099358353
1.0123290099030822
1.0123290099037523
1.0123290099030822
1.0123290099031035
1.0123290099030822
1.0123290099037523
1.0123290099030822
1.0123290099358353
1.0123290099030835
1.0123290110872398
1.0123290099031164
1.0123290402003171
1.012329009904315
1.0123295285688165
1.0123290099320941
1.0123345245415414
1.0123290101881568
1.0123622426430636
1.012329008990893
1.0124316508531859
1.0228016696297946
1.0228581246982393
1.0228016727833162
1.0228110586620882
1.0228016720101321
1.0228025539372338
1.022801671929418
1.0228017232712072
1.0228016719259854
1.0228016739225207
1.0228016719258914
1.0228016719807709
1.0228016719258894
1.0228016719270021
1.0228016719258894
1.0228016719259239
1.0228016719258894
1.0228016719270021
1.0228016719258894
1.0228016719807709
1.0228016719258914
1.0228016739225207
1.0228016719259854
1.0228017232712072
1.022801671929418
1.0228025539372338
1.0228016720101321
1.0228110586620882
1.0228016727833162
1.0228581246982393
1.0228016696297946
1.0229773699100257
1.0417929680577156
1.0418855420126982
1.0417929756839226
1.0418083306267638
1.041792973495147
1.0417944077550012
1.041792973277315
1.0417930560196633
1.0417929732682394
1.0417929764500069
1.0417929732679965
1.0417929733543576
1.0417929732679905
1.0417929732697178
1.0417929732679905
1.0417929732680429
1.0417929732679905
1.0417929732697178
1.0417929732679905
1.0417929733543576
1.0417929732679965
1.0417929764500069
1.0417929732682394
1.0417930560196633
1.041792973277315
1.0417944077550012
1.041792973495147
1.0418083306267638
1.0417929756839226
1.0418855420126982
1.0417929680577156
1.0420877279156189
1.0753722693517505
1.0755177397553228
1.0753722859924195
1.0753961838156678
1.0753722803027497
1.0753744796245122
1.0753722797687915
1.0753724042468593
1.0753722797472229
1.0753722844297839
1.0753722797466565
1.0753722798707412
1.0753722797466456
1.0753722797490661
1.0753722797466456
1.0753722797467167
1.0753722797466456
1.0753722797490661
1.0753722797466456
1.0753722798707412
1.0753722797466565
1.0753722844297839
1.0753722797472229
1.0753724042468593
1.0753722797687915
1.0753744796245122
1.0753722803027497
1.0753961838156678
1.0753722859924195
1.0755177397553228
1.0753722693517505
1.0758581800212434
1.1321757457474815
1.1323931591992105
1.132175777712811
1.1322107741378677
1.1321757644882047
1.1321788929705081
1.13217576333312
1.1321759342491937
1.1321757632884861
1.1321757694687558
1.1321757632873577
1.1321757634443326
1.1321757632873362
1.132175763290266
1.1321757632873359
1.1321757632874192
1.1321757632873359
1.132175763290266
1.1321757632873362
1.1321757634443326
1.1321757632873577
1.1321757694687558
1.1321757632884861
1.1321759342491937
1.13217576333312
1.1321788929705081
1.1321757644882047
1.1322107741378677
1.132175777712811
1.1323931591992105
1.1321757457474815
1.1329642401978293
1.2214550508195607
1.2217612098569641
1.2214551035598535
1.2215026610205779
1.221455077053033
1.2214591193406708
1.2214550749358644
1.2214552830528802
1.2214550748592603
1.221455081913408
1.2214550748574411
1.2214550750248283
1.2214550748574093
1.2214550748603192
1.2214550748574082
1.2214550748574859
1.2214550748574082
1.2214550748603192
1.2214550748574093
1.2214550750248283
1.2214550748574411
1.221455081913408
1.2214550748592603
1.2214552830528802
1.2214550749358644
1.2214591193406708
1.221455077053033
1.2215026610205779
1.2214551035598535
1.2217612098569641
1.2214550508195607
1.2227001388253087
1.346794058679706
1.3471932226441947
1.3467941318629735
1.3468525856243854
1.3467940888582954
1.3467986858715062
1.346794085789693
1.346794302834323
1.3467940856885936
1.3467940924046466
1.3467940856863949
1.3467940858315208
1.3467940856863612
1.3467940856886553
1.3467940856863607
1.3467940856864147
1.3467940856863607
1.3467940856886553
1.3467940856863612
1.3467940858315208
1.3467940856863949
1.3467940924046466
1.3467940856885936
1.346794302834323
1.346794085789693
1.3467986858715062
1.3467940888582954
1.3468525856243854
1.3467941318629735
1.3471932226441947
1.346794058679706
1.3486451353339457
1.4975524468489874
1.4980162638383292
1.4975525286079849
1.4976149945645205
1.4975524769036852
1.4975569278916823
1.4975524736560986
1.4975526630914242
1.4975524735602823
1.4975524788343819
1.4975524735584052
1.4975524736608845
1.4975524735583776
1.497552473559836
1.4975524735583776
1.49755247355841
1.4975524735583776
1.497552473559836
1.4975524735583776
1.4975524736608845
1.4975524735584052
1.4975524788343819
1.4975524735602823
1.4975526630914242
1.4975524736560986
1.4975569278916823
1.4975524769036852
1.4976149945645205
1.4975525286079849
1.4980162638383292
1.4975524468489874
1.5
1.6486301843037063
1.6490916323271203
1.6486302554942249
1.6486868060193083
1.6486302117641507
1.648633852952412
1.6486302093230065
1.648630349270036
1.6486302092580372
1.6486302127787364