# vtk DataFile Version 3.0
Euler density step 190
ASCII
DATASET STRUCTURED_POINTS
DIMENSIONS 32 32 32
ORIGIN 0 0 0
SPACING 0.3125 0.3125 0.3125
POINT_DATA 32768
SCALARS density double 1
LOOKUP_TABLE default
1.0032668366468718
1.0018663243168664
1.0032681888081403
1.0029643881319836
1.0032678316473158
1.0032300757622592
1.0032677763359497
1.0032648694461008
1.0032677733898576
1.0032676240974996
1.0032677733028128
1.0032677678905941
1.0032677733012603
1.0032677731567112
1.0032677733012474
1.003267773295379
1.0032677733012474
1.0032677731567112
1.0032677733012603
1.0032677678905941
1.0032677733028128
1.0032676240974996
1.0032677733898576
1.0032648694461008
1.0032677763359497
1.0032300757622592
1.0032678316473158
1.0029643881319836
1.0032681888081403
1.0018663243168664
1.0032668366468718
1.0000453978687025
1.0000882100488231
1.0000880031335222
1.0000882094608856
1.0000883045223941
1.0000882095299803
1.0000882352312579
1.0000882095538781
1.0000882124536847
1.0000882095555672
1.0000882097480399
1.0000882095556249
1.0000882095641268
1.0000882095556263
1.0000882095558943
1.0000882095556263
1.0000882095556394
1.0000882095556263
1.0000882095558943
1.0000882095556263
1.0000882095641268
1.0000882095556249
1.0000882097480399
1.0000882095555672
1.0000882124536847
1.0000882095538781
1.0000882352312579
1.0000882095299803
1.0000883045223941
1.0000882094608856
1.0000880031335222
1.0000882100488231
1.0000848110417238
1.0018140938533935
1.0012527699625049
1.0018143910595643
1.001713744741191
1.0018143666451358
1.0018040248477842
1.001814361929841
1.001813692278082
1.0018143617011668
1.0018143323035857
1.0018143616956436
1.0018143607727032
1.0018143616955903
1.001814361674028
1.0018143616955908
1.0018143616948185
1.0018143616955908
1.001814361674028
1.0018143616955903
1.0018143607727032
1.0018143616956436
1.0018143323035857
1.0018143617011668
1.001813692278082
1.001814361929841
1.0018040248477842
1.0018143666451358
1.001713744741191
1.0018143910595643
1.0012527699625049
1.0018140938533935
1.0001584362191025
1.0002946871077065
1.0002956805597394
1.0002946871305018
1.0002949376281194
1.0002946871259877
1.0002947208674018
1.0002946871267389
1.0002946898707237
1.0002946871268206
1.0002946872746805
1.0002946871268246
1.0002946871324583
1.0002946871268246
1.0002946871269842
1.0002946871268246
1.0002946871268303
1.0002946871268246
1.0002946871269842
1.0002946871268246
1.0002946871324583
1.0002946871268246
1.0002946872746805
1.0002946871268206
1.0002946898707237
1.0002946871267389
1.0002947208674018
1.0002946871259877
1.0002949376281194
1.0002946871305018
1.0002956805597394
1.0002946871077065
1.0002959571135133
1.0009170463471071
1.0008138527189867
1.000917071946499
1.0009020931410084
1.0009170717755551
1.0009158117361465
1.0009170716274527
1.0009170038377553
1.0009170716209808
1.0009170691234401
1.0009170716208966
1.0009170715548346
1.0009170716208997
1.0009170716196052
1.0009170716208999
1.0009170716208613
1.0009170716208999
1.0009170716196052
1.0009170716208997
1.0009170715548346
1.0009170716208966
1.0009170691234401
1.0009170716209808
1.0009170038377553
1.0009170716274527
1.0009158117361465
1.0009170717755551
1.0009020931410084
1.000917071946499
1.0008138527189867
1.0009170463471071
1.0005527786369237
1.0010218326286762
1.0010263496563765
1.0010218326466811
1.0010227067237385
1.0010218326446578
1.0010219332020009
1.0010218326443259
1.0010218401037134
1.001021832644307
1.0010218330252436
1.0010218326443068
1.0010218326583831
1.0010218326443068
1.0010218326446982
1.0010218326443068
1.0010218326443241
1.0010218326443068
1.0010218326446982
1.0010218326443068
1.0010218326583831
1.0010218326443068
1.0010218330252436
1.001021832644307
1.0010218401037134
1.0010218326443259
1.0010219332020009
1.0010218326446578
1.0010227067237385
1.0010218326466811
1.0010263496563765
1.0010218326286762
1.001032231036755
1.0019529950389179
1.0019502866610888
1.0019529962593343
1.0019532491561396
1.0019529962858418
1.0019530825261804
1.0019529962831464
1.0019530052747236
1.001952996283044
1.0019529968237373
1.0019529962830453
1.0019529963049061
1.0019529962830453
1.0019529962836859
1.0019529962830453
1.0019529962830744
1.0019529962830453
1.0019529962836859
1.0019529962830453
1.0019529963049061
1.0019529962830453
1.0019529968237373
1.001952996283044
1.0019530052747236
1.0019529962831464
1.0019530825261804
1.0019529962858418
1.0019532491561396
1.0019529962593343
1.0019502866610888
1.0019529950389179
1.0019267346633276
1.0035589495823045
1.003573953989793
1.0035589498024033
1.003561836925966
1.0035589497836646
1.0035592806788753
1.0035589497796313
1.0035589742533515
1.0035589497793966
1.003558951025781
1.0035589497793891
1.003558949825315
1.0035589497793891
1.0035589497806616
1.0035589497793891
1.0035589497794433
1.0035589497793891
1.0035589497806616
1.0035589497793891
1.003558949825315
1.0035589497793891
1.003558951025781
1.0035589497793966
1.0035589742533515
1.0035589497796313
1.0035592806788753
1.0035589497836646
1.003561836925966
1.0035589498024033
1.003573953989793
1.0035589495823045
1.0035936025814203
1.006635168153367
1.0066612356507842
1.0066351688472579
1.0066402628077786
1.006635168785021
1.0066357573254829
1.0066351687720074
1.0066352124570745
1.0066351687712605
1.0066351709983377
1.0066351687712343
1.0066351688532624
1.006635168771234
1.0066351687735022
1.006635168771234
1.0066351687713306
1.006635168771234
1.0066351687735022
1.006635168771234
1.0066351688532624
1.0066351687712343
1.0066351709983377
1.0066351687712605
1.0066352124570745
1.0066351687720074
1.0066357573254829
1.006635168785021
1.0066402628077786
1.0066351688472579
1.0066612356507842
1.006635168153367
1.006692850924285
1.0123263359030481
1.0123731930928439
1.0123263378115042
1.0123354062231655
1.012326337596636
1.0123273795064944
1.0123263375555658
1.0123264145825037
1.0123263375532263
1.0123263414659858
1.0123263375531439
1.0123263376967391
1.0123263375531426
1.0123263375571012
1.0123263375531426
1.0123263375533122
1.0123263375531426
1.0123263375571012
1.0123263375531426
1.0123263376967391
1.0123263375531439
1.0123263414659858
1.0123263375532263
1.0123264145825037
1.0123263375555658
1.0123273795064944
1.012326337596636
1.0123354062231655
1.0123263378115042
1.0123731930928439
1.0123263359030481
1.0124316508531859
1.0228008809878588
1.0228807665211144
1.0228008861570272
1.0228163748792909
1.0228008854639599
1.0228026642020296
1.02280088534077
1.0228010164953547
1.0228008853338493
1.0228008919679521
1.0228008853336121
1.0228008855757633
1.0228008853336059
1.0228008853402395
1.0228008853336059
1.0228008853338866
1.0228008853336059
1.0228008853402395
1.0228008853336059
1.0228008855757633
1.0228008853336121
1.0228008919679521
1.0228008853338493
1.0228010164953547
1.02280088534077
1.0228026642020296
1.0228008854639599
1.0228163748792909
1.0228008861570272
1.0228807665211144
1.0228008809878588
1.0229773699100257
1.0417989598941817
1.0419311796316684
1.0417989729749437
1.0418245592974245
1.0417989708498736
1.0418018960827953
1.0417989705016191
1.0417991846518877
1.0417989704824313
1.0417989812145605
1.0417989704817787
1.0417989708692734
1.0417989704817632
1.0417989704922497
1.0417989704817627
1.0417989704822004
1.0417989704817627
1.0417989704922497
1.0417989704817632
1.0417989708692734
1.0417989704817787
1.0417989812145605
1.0417989704824313
1.0417991846518877
1.0417989705016191
1.0418018960827953
1.0417989708498736
1.0418245592974245
1.0417989729749437
1.0419311796316684
1.0417989598941817
1.0420877279156189
1.0753948950193231
1.0756062899100329
1.0753949255898736
1.0754355311793653
1.075394919485462
1.075399510359351
1.0753949185715268
1.0753952496670283
1.0753949185225504
1.0753949348198439
1.0753949185209077
1.0753949190975249
1.075394918520868
1.0753949185361293
1.0753949185208669
1.0753949185214904
1.0753949185208669
1.0753949185361293
1.075394918520868
1.0753949190975249
1.0753949185209077
1.0753949348198439
1.0753949185225504
1.0753952496670283
1.0753949185715268
1.075399510359351
1.075394919485462
1.0754355311793653
1.0753949255898736
1.0756062899100329
1.0753948950193231
1.0758581800212434
1.1322257175439272
1.1325509749108789
1.1322257824608553
1.1322873165001253
1.1322257663395345
1.1322325770573742
1.1322257641564899
1.1322262422452414
1.1322257640440125
1.1322257868443164
1.1322257640403417
1.1322257648191312
1.1322257640402533
1.1322257640600932
1.1322257640402522
1.1322257640410289
1.1322257640402522
1.1322257640600932
1.1322257640402533
1.1322257648191312
1.1322257640403417
1.1322257868443164
1.1322257640440125
1.1322262422452414
1.1322257641564899
1.1322325770573742
1.1322257663395345
1.1322873165001253
1.1322257824608553
1.1325509749108789
1.1322257175439272
1.1329642401978293
1.2215259513960497
1.2220037963560899
1.2215260731809658
1.2216144044356176
1.2215260350170787
1.2215354806299308
1.221526030387813
1.2215266648932579
1.2215260301620254
1.2215260589111328
1.2215260301549573
1.2215260310828551
1.2215260301547934
1.2215260301770392
1.2215260301547901
1.2215260301556083
1.2215260301547901
1.2215260301770392
1.2215260301547934
1.2215260310828551
1.2215260301549573
1.2215260589111328
1.2215260301620254
1.2215266648932579
1.221526030387813
1.2215354806299308
1.2215260350170787
1.2216144044356176
1.2215260731809658
1.2220037963560899
1.2215259513960497
1.2227001388253087
1.3468191490414421
1.347481098458825
1.3468193456696185
1.3469377795215558
1.3468192678293018
1.3468312917516716
1.3468192594804458
1.3468200160107311
1.3468192591043722
1.3468192909213144
1.3468192590934041
1.3468192600407247
1.3468192590931682
1.3468192591140289
1.3468192590931647
1.3468192590938652
1.3468192590931647
1.3468192591140289
1.3468192590931682
1.3468192600407247
1.3468192590934041
1.3468192909213144
1.3468192591043722
1.3468200160107311
1.3468192594804458
1.3468312917516716
1.3468192678293018
1.3469377795215558
1.3468193456696185
1.347481098458825
1.3468191490414421
1.3486451353339457
1.4973588469339638
1.4982018534570398
1.4973591117620155
1.4975029029630609
1.4973589860383028
1.4973725874638268
1.4973589742687643
1.497359761292596
1.497358973791648
1.4973590040034326
1.4973589737790185
1.4973589745963467
1.4973589737787709
1.497358973795075
1.4973589737787678
1.4973589737792647
1.4973589737787678
1.497358973795075
1.4973589737787709
1.4973589745963467
1.4973589737790185
1.4973590040034326
1.497358973791648
1.497359761292596
1.4973589742687643
1.4973725874638268
1.4973589860383028
1.4975029029630609
1.4973591117620155
1.4982018534570398
1.4973588469339638
1.5
1.6480243845866822
1.6489727577157436
1.6480246680063035
1.6481766072478807
1.6480245213688567
1.6480377845742389
1.6480245093352377
1.6480252120187135
1.6480245088985512
1.6480245335018791
1.6480245088881027
1.6480245094939754
1.6480245088879166
1.6480245088989052
1.6480245088879137
1.6480245088882182
1.6480245088879137
1.6480245088989052
1.6480245088879166
1.6480245094939754
1.6480245088881027
1.6480245335018791
1.6480245088985512
1.6480252120187135
1.6480245093352377
1.6480377845742389
1.6480245213688567
1.6481766072478807
1.6480246680063035
1.6489727577157436
1.6480243845866822
1.6513548646660543
1.7737800441848008
1.7746970659799701
1.7737802819283572
1.7739175656840735
1.7737801611685884
1.7737912665543611
1.7737801522627235
1.7737806963239713
1.7737801519684691
1.7737801695747508
1.7737801519620009
1.7737801523626973
1.7737801519618948
1.7737801519686096
1.7737801519618934
1.7737801519620655
1.7737801519618934
1.7737801519686096
1.7737801519618948
1.7737801523626973
1.7737801519620009
1.7737801695747508
1.7737801519684691
1.7737806963239713
1.7737801522627235
1.7737912665543611
1.7737801611685884
1.7739175656840735
1.7737802819283572
1.7746970659799701
1.7737800441848008
1.7772998611746911
1.8639093289203073
1.8646738669816183
1.863909490587172
1.864016935844544
1.8639094169275285
1.8639175717230925
1.8639094118899899
1.8639097874410619
1.8639094117347237
1.8639094231788282
1.8639094117315178
1.8639094119770838
1.8639094117314696
1.8639094117353538
1.863909411731469
1.8639094117315615
1.863909411731469
1.8639094117353538
1.8639094117314696
1.8639094119770838
1.8639094117315178
1.8639094231788282
1.8639094117347237
1.8639097874410619
1.8639094118899899
1.8639175717230925
1.8639094169275285
1.864016935844544
1.863909490587172
1.8646738669816183
1.8639093289203073
1.8670357598021707
1.9217399325314624
1.9223021809216061
1.9217400246210068
1.9218149417523274
1.9217399889177531
1.9217454012090029
1.9217399865924856
1.9217402248067914
1.9217399865241993
1.9217399934820552
1.9217399865228519
1.921739986666239
1.921739986522832
1.9217399865250122
1.921739986522832
1.9217399865228821
1.921739986522832
1.9217399865250122
1.921739986522832
1.921739986666239
1.9217399865228519
1.9217399934820552
1.9217399865241993
1.9217402248067914
1.9217399865924856
1.9217454012090029
1.9217399889177531
1.9218149417523274
1.9217400246210068
1.9223021809216061
1.9217399325314624
1.9241418199787566
1.9562610708796169
1.9566360179438584
1.956261115711897
1.9563090359076358
1.9562611010796107
1.956264440380074
1.9562611001544004
1.9562612425791857
1.9562611001280954
1.9562611041721427
1.9562611001275907
1.9562611002087833
1.9562611001275834
1.9562611001287902
1.9562611001275834
1.9562611001276113
1.9562611001275834
1.9562611001287902
1.9562611001275834
1.9562611002087833
1.9562611001275907
1.9562611041721427
1.9562611001280954
1.9562612425791857
1.9562611001544004
1.956264440380074
1.9562611010796107
1.9563090359076358
1.956261115711897
1.9566360179438584
1.9562610708796169
1.9579122720843811
1.975976792421801
1.9762093215629608
1.9759768114922092
1.9760056330236579
1.9759768061719363
1.9759787647709113
1.9759768058409966
1.975976887648617
1.9759768058317817
1.9759768081130193
1.9759768058316101
1.975976805876676
1.9759768058316072
1.9759768058322662
1.9759768058316072
1.9759768058316212
1.9759768058316072
1.9759768058322662
1.9759768058316072
1.975976805876676
1.9759768058316101
1.9759768081130193
1.9759768058317817
1.975976887648617
1.9759768058409966
1.9759787647709113
1.9759768061719363
1.9760056330236579
1.9759768114922092
1.9762093215629608
1.975976792421801
1.9770226300899743
1.9869424349571576
1.9870795627152702
1.9869424422290582
1.9869590702220632
1.9869424404480616
1.9869435513768516
1.9869424403381866
1.9869424861177303
1.9869424403351692
1.9869424415974988
1.9869424403351128
1.986942440359809
1.9869424403351126
1.9869424403354694
1.9869424403351126
1.9869424403351204
1.9869424403351126
1.9869424403354694
1.9869424403351126
1.986942440359809
1.9869424403351128
1.9869424415974988
1.9869424403351692
1.9869424861177303
1.9869424403381866
1.9869435513768516
1.9869424404480616
1.9869590702220632
1.9869424422290582
1.9870795627152702
1.9869424349571576
1.9875683491468141
1.9929614199170638
1.9930374100313009
1.992961422550851
1.9929706066610766
1.9929614219924057
1.992962032762547
1.9929614219576786
1.9929614470065844
1.9929614219567282
1.9929614226442742
1.9929614219567111
1.9929614219701033
1.9929614219567104
1.9929614219569038
1.9929614219567104
1.9929614219567149
1.9929614219567104
1.9929614219569038
1.9929614219567104
1.9929614219701033
1.9929614219567111
1.9929614226442742
1.9929614219567282
1.9929614470065844
1.9929614219576786
1.992962032762547
1.9929614219924057
1.9929706066610766
1.992961422550851
1.9930374100313009
1.9929614199170638
1.993307149075715
1.996204875293268
1.9962485098567988
1.9962048761284157
1.9962100376925196
1.9962048759556177
1.9962052146488924
1.9962048759450297
1.9962048897151594
1.9962048759447428
1.9962048763204294
1.9962048759447388
1.996204875952025
1.9962048759447386
1.9962048759448432
1.9962048759447386
1.9962048759447406
1.9962048759447386
1.9962048759448432
1.9962048759447386
1.996204875952025
1.9962048759447388
1.9962048763204294
1.9962048759447428
1.9962048897151594
1.9962048759450297
1.9962052146488924
1.9962048759556177
1.9962100376925196
1.9962048761284157
1.9962485098567988
1.996204875293268
1.9964063974185799
1.9981533422684259
1.9981416786117925
1.9981533464159318
1.998153114554347
1.9981533462565233
1.9981533838821024
1.9981533462383732
1.9981533492382522
1.9981533462377639
1.9981533463476127
1.9981533462377514
1.9981533462402719
1.9981533462377514
1.9981533462377923
1.9981533462377514
1.9981533462377525
1.9981533462377514
1.9981533462377923
1.9981533462377514
1.9981533462402719
1.9981533462377514
1.9981533463476127
1.9981533462377639
1.9981533492382522
1.9981533462383732
1.9981533838821024
1.9981533462565233
1.998153114554347
1.9981533464159318
1.9981416786117925
1.9981533422684259
1.9980732653366724
1.9989052986654894
1.9989192340072459
1.998905298692677
1.9989069343628156
1.9989052986858753
1.9989054051625434
1.9989052986858757
1.9989053029838166
1.9989052986858864
1.998905298802419
1.9989052986858864
1.9989052986881335
1.9989052986858864
1.9989052986859182
1.9989052986858864
1.9989052986858873
1.9989052986858864
1.9989052986859182
1.9989052986858864
1.9989052986881335
1.9989052986858864
1.998905298802419
1.9989052986858864
1.9989053029838166
1.9989052986858757
1.9989054051625434
1.9989052986858753
1.9989069343628156
1.998905298692677
1.9989192340072459
1.9989052986654894
1.9989677689632452
2.0007688937194259
2.0004553076225289
2.0007689712476129
2.0007351664381283
2.0007689622011577
2.0007669792040006
2.0007689615104884
2.0007688896187839
2.0007689614891935
2.0007689597355784
2.0007689614887711
2.0007689614582418
2.0007689614887654
2.0007689614883688
2.0007689614887649
2.0007689614887565
2.0007689614887649
2.0007689614883688
2.0007689614887654
2.0007689614582418
2.0007689614887711
2.0007689597355784
2.0007689614891935
2.0007688896187839
2.0007689615104884
2.0007669792040006
2.0007689622011577
2.0007351664381283
2.0007689712476129
2.0004553076225289
2.0007688937194259
1.9994472213630763
1.9996850941614903
1.9996912071889923
1.9996850938561999
1.9996859521783397
1.9996850940501885
1.9996851567906062
1.9996850940678106
1.999685096809739
1.9996850940684743
1.9996850941471853
1.9996850940684903
1.9996850940700754
1.9996850940684907
1.9996850940685147
1.9996850940684907
1.9996850940684909
1.9996850940684907
1.9996850940685147
1.9996850940684907
1.9996850940700754
1.9996850940684903
1.9996850941471853
1.9996850940684743
1.999685096809739
1.9996850940678106
1.9996851567906062
1.9996850940501885
1.9996859521783397
1.9996850938561999
1.9996912071889923
1.9996850941614903
1.999704042886487
2.0039478291271062
2.0027507215388449
2.0039482021066939
2.0037811758666213
2.0039479870598891
2.0039357090465511
2.0039479733217509
2.0039474326273683
2.0039479729185148
2.0039479572752863
2.003947972910602
2.0039479725933553
2.0039479729104874
2.0039479729057583
2.0039479729104861
2.00394797291038
2.0039479729104861
2.0039479729057583
2.0039479729104874
2.0039479725933553
2.003947972910602
2.0039479572752863
2.0039479729185148
2.0039474326273683
2.0039479733217509
2.0039357090465511
2.0039479870598891
2.0037811758666213
2.0039482021066939
2.0027507215388449
2.0039478291271062
1.9998415637808975
1.9999151889582765
1.9999151889582765
1.9999151889582765
1.9999151889582765
1.9999151889582765
1.9999151889582765
1.9999151889582765
1.9999151889582765
1.9999151889582765
1.9999151889582765
1.9999151889582765
1.9999151889582765
1.9999151889582765
1.9999151889582765
1.9999151889582765
1.9999151889582765
1.9999151889582765
1.9999151889582765
1.9999151889582765
1.9999151889582765
1.9999151889582765
1.9999151889582765
1.9999151889582765
1.9999151889582765
1.9999151889582765
1.9999151889582765
1.9999151889582765
1.9999151889582765
1.9999151889582765
1.9999151889582765
1.9999151889582765
1.9999151889582765
1.0045487335309626
1.0030465414335661
1.004551090644064
1.0041351925187345
1.0045500312473989
1.0044855317111938
1.0045498328928171
1.0045438218798755
1.0045498182748998
1.0045494524643312
1.0045498176237664
1.0045498021157728
1.0045498176031877
1.0045498171223168
1.0045498176026959
1.0045498175801055
1.0045498176026959
1.0045498171223168
1.0045498176031877
1.0045498021157728
1.0045498176237664
1.0045494524643312
1.0045498182748998
1.0045438218798755
1.0045498328928171
1.0044855317111938
1.0045500312473989
1.0041351925187345
1.004551090644064
1.0030465414335661
1.0045487335309626
1.0000453978687025
1.000090853784481
1.0000891905184466
1.0000908532328217
1.0000906134775454
1.0000908531582604
1.0000908367126249
1.0000908531987815
1.0000908529762023
1.0000908532039174
1.0000908532495467
1.0000908532042121
1.0000908532081119
1.0000908532042228
1.0000908532043933
1.000090853204223
1.0000908532042321
1.000090853204223
1.0000908532043933
1.0000908532042228
1.0000908532081119
1.0000908532042121
1.0000908532495467
1.0000908532039174
1.0000908529762023
1.0000908531987815
1.0000908367126249
1.0000908531582604
1.0000906134775454
1.0000908532328217
1.0000891905184466
1.000090853784481
1.0000848110417238
1.0019951066589967
1.0012433996575885
1.0019957631171894
1.0018281398626683
1.0019956579992673
1.0019747031415005
1.0019956340037401
1.0019940179325511
1.0019956322815893
1.0019955489610595
1.0019956322079533
1.0019956291599816
1.0019956322057406
1.0019956321230186
1.0019956322056893
1.001995632202249
1.0019956322056893
1.0019956321230186
1.0019956322057406
1.0019956291599816
1.0019956322079533
1.0019955489610595
1.0019956322815893
1.0019940179325511
1.0019956340037401
1.0019747031415005
1.0019956579992673
1.0018281398626683
1.0019957631171894
1.0012433996575885
1.0019951066589967
1.0001584362191025
1.0002975167339077
1.0002974226134267
1.0002975174093398
1.0002976043767593
1.0002975173143451
1.0002975395718749
1.0002975173019419
1.0002975197566744
1.0002975173013751
1.0002975174614621
1.0002975173013606
1.0002975173083428
1.0002975173013606
1.0002975173015789
1.0002975173013606
1.0002975173013708
1.0002975173013606
1.0002975173015789
1.0002975173013606
1.0002975173083428
1.0002975173013606
1.0002975174614621
1.0002975173013751
1.0002975197566744
1.0002975173019419
1.0002975395718749
1.0002975173143451
1.0002976043767593
1.0002975174093398
1.0002974226134267
1.0002975167339077
1.0002959571135133
1.001071418402919
1.0008968634641422
1.001071491290475
1.0010409002418248
1.0010714878225315
1.0010684132495755
1.0010714865511841
1.0010712907057986
1.0010714864570012
1.0010714779390597
1.0010714864530346
1.001071486186015
1.0010714864529204
1.0010714864466395
1.0010714864529187
1.0010714864526891
1.0010714864529187
1.0010714864466395
1.0010714864529204
1.001071486186015
1.0010714864530346
1.0010714779390597
1.0010714864570012
1.0010712907057986
1.0010714865511841
1.0010684132495755
1.0010714878225315
1.0010409002418248
1.001071491290475
1.0008968634641422
1.001071418402919
1.0005527786369237
1.001018618125987
1.001024224834568
1.0010186182335634
1.0010198472610388
1.001018618223481
1.0010187765963485
1.0010186182214764
1.0010186311145466
1.0010186182213578
1.0010186189307466
1.0010186182213523
1.0010186182491756
1.0010186182213523
1.0010186182221616
1.0010186182213523
1.0010186182213896
1.0010186182213523
1.0010186182221616
1.0010186182213523
1.0010186182491756
1.0010186182213523
1.0010186189307466
1.0010186182213578
1.0010186311145466
1.0010186182214764
1.0010187765963485
1.001018618223481
1.0010198472610388
1.0010186182335634
1.001024224834568
1.001018618125987
1.001032231036755
1.0019804396204179
1.0019686906126155
1.0019804442332982
1.0019795369634503
1.0019804442317513
1.00198046869812
1.0019804441876088
1.0019804533126062
1.0019804441841329
1.001980444933007
1.0019804441839877
1.001980444219623
1.0019804441839835
1.0019804441851441
1.0019804441839832
1.0019804441840401
1.0019804441839832
1.0019804441851441
1.0019804441839835
1.001980444219623
1.0019804441839877
1.001980444933007
1.0019804441841329
1.0019804533126062
1.0019804441876088
1.00198046869812
1.0019804442317513
1.0019795369634503
1.0019804442332982
1.0019686906126155
1.0019804396204179
1.0019267346633276
1.0035461138916519
1.0035653617054197
1.0035461143751716
1.0035502852817748
1.0035461143076285
1.0035466477046089
1.0035461142937161
1.0035461575080826
1.0035461142928055
1.0035461166625246
1.0035461142927697
1.003546114385462
1.0035461142927686
1.0035461142954623
1.0035461142927686
1.0035461142928888
1.0035461142927686
1.0035461142954623
1.0035461142927686
1.003546114385462
1.0035461142927697
1.0035461166625246
1.0035461142928055
1.0035461575080826
1.0035461142937161
1.0035466477046089
1.0035461143076285
1.0035502852817748
1.0035461143751716
1.0035653617054197
1.0035461138916519
1.0035936025814203
1.0066174670794608
1.0066494963259534
1.0066174686274305
1.0066246259343152
1.0066174684160962
1.0066183996039777
1.0066174683722426
1.0066175444913559
1.0066174683693652
1.0066174725619528
1.0066174683692517
1.0066174685335627
1.0066174683692481
1.006617468374027
1.0066174683692481
1.0066174683694606
1.0066174683692481
1.006617468374027
1.0066174683692481
1.0066174685335627
1.0066174683692517
1.0066174725619528
1.0066174683693652
1.0066175444913559
1.0066174683722426
1.0066183996039777
1.0066174684160962
1.0066246259343152
1.0066174686274305
1.0066494963259534
1.0066174670794608
1.006692850924285
1.0122916887137743
1.0123492480328444
1.0122916924244745
1.0123043476408962
1.0122916917397133
1.012293324905043
1.0122916916114111
1.012291824467759
1.0122916916031692
1.0122916988934971
1.0122916916028468
1.0122916918875746
1.0122916916028373
1.0122916916110916
1.0122916916028368
1.0122916916032036
1.0122916916028368
1.0122916916110916
1.0122916916028373
1.0122916918875746
1.0122916916028468
1.0122916988934971
1.0122916916031692
1.012291824467759
1.0122916916114111
1.012293324905043
1.0122916917397133
1.0123043476408962
1.0122916924244745
1.0123492480328444
1.0122916887137743
1.0124316508531859
1.0227473998038776
1.022842211585969
1.0227474091348874
1.0227684053485746
1.0227474071085865
1.0227501257146372
1.0227474067500761
1.0227476278385355
1.0227474067274054
1.0227474188254864
1.0227474067265263
1.0227474071969196
1.0227474067265014
1.0227474067400597
1.0227474067265014
1.0227474067271001
1.0227474067265014
1.0227474067400597
1.0227474067265014
1.0227474071969196
1.0227474067265263
1.0227474188254864
1.0227474067274054
1.0227476278385355
1.0227474067500761
1.0227501257146372
1.0227474071085865
1.0227684053485746
1.0227474091348874
1.022842211585969
1.0227473998038776
1.0229773699100257
1.0417175994409229
1.0418680941917398
1.0417176210503436
1.0417510388456814
1.0417176154455694
1.0417219365697024
1.0417176145168956
1.0417179639801657
1.0417176144594478
1.0417176334197062
1.041717614457254
1.0417176151867167
1.0417176144571911
1.041717614477967
1.0417176144571905
1.0417176144580951
1.0417176144571905
1.041717614477967
1.0417176144571911
1.0417176151867167
1.041717614457254
1.0417176334197062
1.0417176144594478
1.0417179639801657
1.0417176145168956
1.0417219365697024
1.0417176154455694
1.0417510388456814
1.0417176210503436
1.0418680941917398
1.0417175994409229
1.0420877279156189
1.0752728203742004
1.0755013750343994
1.0752728658727408
1.0753234561081855
1.0752728516425472
1.0752793337369022
1.0752728494534001
1.0752733660202989
1.0752728493221362
1.0752728768325774
1.0752728493172312
1.0752728503534097
1.0752728493170984
1.0752728493459336
1.0752728493170955
1.0752728493183195
1.0752728493170955
1.0752728493459336
1.0752728493170984
1.0752728503534097
1.0752728493172312
1.0752728768325774
1.0752728493221362
1.0752733660202989
1.0752728494534001
1.0752793337369022
1.0752728516425472
1.0753234561081855
1.0752728658727408
1.0755013750343994
1.0752728203742004
1.0758581800212434
1.1320452404408066
1.1323758839604883
1.1320453257273226
1.1321176387779746
1.1320452933129066
1.132054360920083
1.1320452887282186
1.1320459903547273
1.1320452884650654
1.1320453245509627
1.1320452884555732
1.132045289763286
1.1320452884553225
1.1320452884902428
1.1320452884553174
1.1320452884567382
1.1320452884553174
1.1320452884902428
1.1320452884553225
1.132045289763286
1.1320452884555732
1.1320453245509627
1.1320452884650654
1.1320459903547273
1.1320452887282186
1.132054360920083
1.1320452933129066
1.1321176387779746
1.1320453257273226
1.1323758839604883
1.1320452404408066
1.1329642401978293
1.22127851351523
1.221730753990625
1.2212786522382275
1.2213753671661698
1.221278587933075
1.2212902419109513
1.2212785796676522
1.2212794361085715
1.2212785792221006
1.2212786207513189
1.2212785792069052
1.2212785806190987
1.2212785792065293
1.2212785792417973
1.2212785792065215
1.2212785792078606
1.2212785792065215
1.2212785792417973
1.2212785792065293
1.2212785806190987
1.2212785792069052
1.2212786207513189
1.2212785792221006
1.2212794361085715
1.2212785796676522
1.2212902419109513
1.221278587933075
1.2213753671661698
1.2212786522382275
1.221730753990625
1.22127851351523
1.2227001388253087
1.3465447584649943
1.3471240447604911
1.3465449505483202
1.3466638753872806
1.3465448450989492
1.346558256624103
1.3465448330029102
1.3465457434191901
1.3465448324074527
1.3465448729062555
1.3465448323887959
1.346544833647294
1.3465448323883722
1.3465448324170275
1.3465448323883653
1.3465448323893543
1.3465448323883653
1.3465448324170275
1.3465448323883722
1.346544833647294
1.3465448323887959
1.3465448729062555
1.3465448324074527
1.3465457434191901
1.3465448330029102
1.346558256624103
1.3465448450989492
1.3466638753872806
1.3465449505483202
1.3471240447604911
1.3465447584649943
1.3486451353339457
1.497197807299453
1.4978737503562416
1.4971980248312589
1.4973275406476176
1.4971978941978403
1.4972112179811501
1.4971978810145592
1.4971986992241164
1.4971978804338058
1.497197913253947
1.4971978804173911
1.4971978813359166
1.4971978804170532
1.4971978804358834
1.497197880417048
1.4971978804176362
1.497197880417048
1.4971978804358834
1.4971978804170532
1.4971978813359166
1.4971978804173911
1.497197913253947
1.4971978804338058
1.4971986992241164
1.4971978810145592
1.4972112179811501
1.4971978941978403
1.4973275406476176
1.4971980248312589
1.4978737503562416
1.497197807299453
1.5
1.648172967473424
1.6488615962151305
1.648173160932471
1.6482938018700568
1.6481730466817333
1.6481842631120174
1.6481730364487777
1.6481736580448292
1.6481730360434022
1.648173058558668