# vtk DataFile Version 3.0
Euler density step 152
ASCII
DATASET STRUCTURED_POINTS
DIMENSIONS 32 32 32
ORIGIN 0 0 0
SPACING 0.3125 0.3125 0.3125
POINT_DATA 32768
SCALARS density double 1
LOOKUP_TABLE default
1.0022722652249572
1.0015596015369346
1.0022726284401602
1.0021721834674175
1.0022725319552377
1.0022646658270111
1.0022725248728257
1.0022721460529267
1.0022725246644473
1.0022725125328875
1.0022725246608228
1.0022725243873349
1.0022725246607846
1.0022725246562569
1.0022725246607838
1.002272524660671
1.0022725246607838
1.0022725246562569
1.0022725246607846
1.0022725243873349
1.0022725246608228
1.0022725125328875
1.0022725246644473
1.0022721460529267
1.0022725248728257
1.0022646658270111
1.0022725319552377
1.0021721834674175
1.0022726284401602
1.0015596015369346
1.0022722652249572
1.0000453978687025
1.0000869954291156
1.0000869126312717
1.0000869953532279
1.0000870288001293
1.0000869953709539
1.0000870007031146
1.0000869953734919
1.0000869957381811
1.0000869953736082
1.0000869953883258
1.0000869953736105
1.0000869953740059
1.0000869953736105
1.0000869953736191
1.0000869953736105
1.0000869953736109
1.0000869953736105
1.0000869953736191
1.0000869953736105
1.0000869953740059
1.0000869953736105
1.0000869953883258
1.0000869953736082
1.0000869957381811
1.0000869953734919
1.0000870007031146
1.0000869953709539
1.0000870288001293
1.0000869953532279
1.0000869126312717
1.0000869954291156
1.0000848110417238
1.0009607123112576
1.0007694217768532
1.0009607684506752
1.0009388471197056
1.0009607645909873
1.0009593570388646
1.0009607642499876
1.0009607076399516
1.0009607642405123
1.0009607627014168
1.0009607642403771
1.0009607642105298
1.0009607642403764
1.0009607642399465
1.0009607642403764
1.0009607642403662
1.0009607642403764
1.0009607642399465
1.0009607642403764
1.0009607642105298
1.0009607642403771
1.0009607627014168
1.0009607642405123
1.0009607076399516
1.0009607642499876
1.0009593570388646
1.0009607645909873
1.0009388471197056
1.0009607684506752
1.0007694217768532
1.0009607123112576
1.0001584362191025
1.0002951618939862
1.0002956283433002
1.0002951618915532
1.0002952350582286
1.0002951618919478
1.0002951679849201
1.000295161892077
1.0002951621997849
1.000295161892083
1.0002951619024008
1.000295161892083
1.0002951618923288
1.000295161892083
1.0002951618920883
1.000295161892083
1.000295161892083
1.000295161892083
1.0002951618920883
1.000295161892083
1.0002951618923288
1.000295161892083
1.0002951619024008
1.000295161892083
1.0002951621997849
1.000295161892077
1.0002951679849201
1.0002951618919478
1.0002952350582286
1.0002951618915532
1.0002956283433002
1.0002951618939862
1.0002959571135133
1.0006651672867533
1.0006434531158803
1.0006651701397791
1.00066318348245
1.000665170104698
1.0006650674776829
1.0006651700982461
1.0006651667591355
1.0006651700980835
1.0006651700248914
1.0006651700980826
1.0006651700969587
1.0006651700980826
1.0006651700980713
1.0006651700980826
1.0006651700980826
1.0006651700980826
1.0006651700980713
1.0006651700980826
1.0006651700969587
1.0006651700980826
1.0006651700248914
1.0006651700980835
1.0006651667591355
1.0006651700982461
1.0006650674776829
1.000665170104698
1.00066318348245
1.0006651701397791
1.0006434531158803
1.0006651672867533
1.0005527786369237
1.0010278296649902
1.0010295116667474
1.0010278296673814
1.0010280563395015
1.0010278296670148
1.0010278470991303
1.0010278296669852
1.0010278305123577
1.0010278296669841
1.001027829694771
1.0010278296669841
1.0010278296676363
1.0010278296669841
1.0010278296669952
1.0010278296669841
1.0010278296669846
1.0010278296669841
1.0010278296669952
1.0010278296669841
1.0010278296676363
1.0010278296669841
1.001027829694771
1.0010278296669841
1.0010278305123577
1.0010278296669852
1.0010278470991303
1.0010278296670148
1.0010280563395015
1.0010278296673814
1.0010295116667474
1.0010278296649902
1.001032231036755
1.0019274976649801
1.0019291184106778
1.0019274977511134
1.0019277984849198
1.0019274977508412
1.0019275244396226
1.001927497750682
1.0019274991409308
1.0019274977506778
1.0019274977981614
1.0019274977506778
1.0019274977518171
1.0019274977506778
1.0019274977506978
1.0019274977506778
1.0019274977506785
1.0019274977506778
1.0019274977506978
1.0019274977506778
1.0019274977518171
1.0019274977506778
1.0019274977981614
1.0019274977506778
1.0019274991409308
1.001927497750682
1.0019275244396226
1.0019274977508412
1.0019277984849198
1.0019274977511134
1.0019291184106778
1.0019274976649801
1.0019267346633276
1.0035786936204369
1.0035843483314804
1.0035786936547761
1.0035794519772543
1.0035786936504656
1.0035787517359553
1.003578693650069
1.003578696456372
1.0035786936500546
1.0035786937419622
1.0035786936500546
1.0035786936522051
1.0035786936500546
1.0035786936500921
1.0035786936500546
1.003578693650055
1.0035786936500546
1.0035786936500921
1.0035786936500546
1.0035786936522051
1.0035786936500546
1.0035786937419622
1.0035786936500546
1.003578696456372
1.003578693650069
1.0035787517359553
1.0035786936504656
1.0035794519772543
1.0035786936547761
1.0035843483314804
1.0035786936204369
1.0035936025814203
1.0066663216065079
1.006676533079941
1.0066663217162723
1.0066676944930721
1.0066663217017702
1.0066664268728358
1.0066663217004588
1.006666326775925
1.0066663217004139
1.0066663218663288
1.006666321700413
1.0066663217042873
1.006666321700413
1.0066663217004796
1.006666321700413
1.0066663217004146
1.006666321700413
1.0066663217004796
1.006666321700413
1.0066663217042873
1.006666321700413
1.0066663218663288
1.0066663217004139
1.006666326775925
1.0066663217004588
1.0066664268728358
1.0066663217017702
1.0066676944930721
1.0066663217162723
1.006676533079941
1.0066663216065079
1.006692850924285
1.0123836661251715
1.0124020626934165
1.0123836664543959
1.0123861295051213
1.0123836664061072
1.0123838544365769
1.0123836664018837
1.0123836754425577
1.0123836664017369
1.0123836666960939
1.0123836664017332
1.0123836664085768
1.0123836664017329
1.0123836664018524
1.0123836664017329
1.0123836664017369
1.0123836664017329
1.0123836664018524
1.0123836664017329
1.0123836664085768
1.0123836664017332
1.0123836666960939
1.0123836664017369
1.0123836754425577
1.0123836664018837
1.0123838544365769
1.0123836664061072
1.0123861295051213
1.0123836664543959
1.0124020626934165
1.0123836661251715
1.0124316508531859
1.0228934114708186
1.0229257197749073
1.0228934124160731
1.0228977242038402
1.0228934122604401
1.0228937399094586
1.0228934122473305
1.0228934279082356
1.0228934122468845
1.0228934127533043
1.0228934122468749
1.0228934122585596
1.0228934122468742
1.022893412247075
1.0228934122468742
1.0228934122468796
1.0228934122468742
1.022893412247075
1.0228934122468742
1.0228934122585596
1.0228934122468749
1.0228934127533043
1.0228934122468845
1.0228934279082356
1.0228934122473305
1.0228937399094586
1.0228934122604401
1.0228977242038402
1.0228934124160731
1.0229257197749073
1.0228934114708186
1.0229773699100257
1.0419429804394684
1.0419982930320002
1.0419429829732318
1.0419503098005882
1.0419429824924429
1.0419435339798166
1.0419429824538864
1.0419430085141965
1.0419429824525994
1.0419429832845157
1.041942982452571
1.0419429824714999
1.041942982452571
1.0419429824528914
1.041942982452571
1.0419429824525785
1.041942982452571
1.0419429824528914
1.041942982452571
1.0419429824714999
1.041942982452571
1.0419429832845157
1.0419429824525994
1.0419430085141965
1.0419429824538864
1.0419435339798166
1.0419429824924429
1.0419503098005882
1.0419429829732318
1.0419982930320002
1.0419429804394684
1.0420877279156189
1.0756104666630109
1.0757022221277497
1.0756104728953531
1.0756224525688927
1.0756104714958445
1.0756113572953874
1.0756104713903543
1.0756105123859854
1.0756104713869363
1.0756104726657187
1.0756104713868613
1.0756104714152437
1.0756104713868606
1.0756104713873278
1.0756104713868606
1.0756104713868726
1.0756104713868606
1.0756104713873278
1.0756104713868606
1.0756104714152437
1.0756104713868613
1.0756104726657187
1.0756104713869363
1.0756105123859854
1.0756104713903543
1.0756113572953874
1.0756104714958445
1.0756224525688927
1.0756104728953531
1.0757022221277497
1.0756104666630109
1.0758581800212434
1.132539632790164
1.1326860805708987
1.1325396465157405
1.1325583099036536
1.1325396427655794
1.132540981586375
1.1325396425037331
1.132539702310374
1.1325396424955954
1.1325396442893925
1.1325396424954273
1.132539642533597
1.1325396424954246
1.1325396424960246
1.1325396424954246
1.132539642495439
1.1325396424954246
1.1325396424960246
1.1325396424954246
1.132539642533597
1.1325396424954273
1.1325396442893925
1.1325396424955954
1.132539702310374
1.1325396425037331
1.132540981586375
1.1325396427655794
1.1325583099036536
1.1325396465157405
1.1326860805708987
1.132539632790164
1.1329642401978293
1.2219744169660947
1.2221970606864498
1.2219744431765815
1.2220018003903699
1.2219744342153078
1.2219763050309389
1.2219744336456104
1.2219745126597639
1.2219744336289529
1.2219744358568352
1.2219744336286233
1.2219744336730134
1.2219744336286189
1.2219744336292713
1.2219744336286189
1.221974433628634
1.2219744336286189
1.2219744336292713
1.2219744336286189
1.2219744336730134
1.2219744336286233
1.2219744358568352
1.2219744336289529
1.2219745126597639
1.2219744336456104
1.2219763050309389
1.2219744342153078
1.2220018003903699
1.2219744431765815
1.2221970606864498
1.2219744169660947
1.2227001388253087
1.3474487619840194
1.3477652762753707
1.3474488042155495
1.3474856929417549
1.3474487861868001
1.3474511396905244
1.3474487851661308
1.3474488769699633
1.3474487851388168
1.3474487875145835
1.3474487851383226
1.3474487851815935
1.3474487851383166
1.347448785138897
1.3474487851383166
1.3474487851383274
1.3474487851383166
1.347448785138897
1.3474487851383166
1.3474487851815935
1.3474487851383226
1.3474487875145835
1.3474487851388168
1.3474488769699633
1.3474487851661308
1.3474511396905244
1.3474487861868001
1.3474856929417549
1.3474488042155495
1.3477652762753707
1.3474487619840194
1.3486451353339457
1.4982184066101241
1.4986237507808213
1.4982184619377052
1.4982625066545059
1.4982184341632778
1.4982210114539063
1.4982184327864068
1.4982185242201889
1.4982184327534098
1.4982184348955627
1.4982184327528729
1.4982184327881016
1.4982184327528665
1.4982184327532906
1.4982184327528665
1.4982184327528745
1.4982184327528665
1.4982184327532906
1.4982184327528665
1.4982184327881016
1.4982184327528729
1.4982184348955627
1.4982184327534098
1.4982185242201889
1.4982184327864068
1.4982210114539063
1.4982184341632778
1.4982625066545059
1.4982184619377052
1.4986237507808213
1.4982184066101241
1.5
1.6491149621925869
1.6495620896513969
1.6491150186159407
1.6491599615638814
1.6491149883287222
1.6491173944676545
1.6491149870076081
1.6491150647526935
1.6491149869792328
1.6491149886346212
1.6491149869788164
1.6491149870035289
1.6491149869788111
1.6491149869790811
1.6491149869788111
1.6491149869788162
1.6491149869788111
1.6491149869790811
1.6491149869788111
1.6491149870035289
1.6491149869788164
1.6491149886346212
1.6491149869792328
1.6491150647526935
1.6491149870076081
1.6491173944676545
1.6491149883287222
1.6491599615638814
1.6491150186159407
1.6495620896513969
1.6491149621925869
1.6513548646660543
1.7749929414839214
1.7754092136221753
1.7749929862770553
1.7750318897481827
1.7749929630548253
1.7749948909208877
1.7749929621408378
1.774993019743333
1.7749929621228864
1.7749929632569261
1.7749929621226443
1.7749929621382985
1.7749929621226415
1.7749929621227982
1.7749929621226415
1.7749929621226443
1.7749929621226415
1.7749929621227982
1.7749929621226415
1.7749929621382985
1.7749929621226443
1.7749929632569261
1.7749929621228864
1.774993019743333
1.7749929621408378
1.7749948909208877
1.7749929630548253
1.7750318897481827
1.7749929862770553
1.7754092136221753
1.7749929414839214
1.7772998611746911
1.8650626469548195
1.8653941605990496
1.8650626757813988
1.8650918430799677
1.8650626625650568
1.8650640239279079
1.8650626620809589
1.8650627004515532
1.8650626620720414
1.8650626627855309
1.8650626620719268
1.8650626620812405
1.8650626620719262
1.8650626620720154
1.8650626620719262
1.8650626620719268
1.8650626620719262
1.8650626620720154
1.8650626620719262
1.8650626620812405
1.8650626620719268
1.8650626627855309
1.8650626620720414
1.8650627004515532
1.8650626620809589
1.8650640239279079
1.8650626625650568
1.8650918430799677
1.8650626757813988
1.8653941605990496
1.8650626469548195
1.8670357598021707
1.9226873656107715
1.9229203323247077
1.9226873811578939
1.9227069482102397
1.922687375149315
1.9226882498537325
1.9226873749391118
1.9226873986194528
1.9226873749354052
1.9226873753591882
1.9226873749353597
1.9226873749406879
1.9226873749353595
1.9226873749354076
1.9226873749353595
1.9226873749353597
1.9226873749353595
1.9226873749354076
1.9226873749353595
1.9226873749406879
1.9226873749353597
1.9226873753591882
1.9226873749354052
1.9226873986194528
1.9226873749391118
1.9226882498537325
1.922687375149315
1.9227069482102397
1.9226873811578939
1.9229203323247077
1.9226873656107715
1.9241418199787566
1.9569508467158845
1.9571001100546142
1.9569508538808968
1.9569629748612343
1.9569508515517031
1.9569513776229122
1.9569508514724347
1.9569508653433323
1.9569508514710761
1.95695085171335
1.9569508514710598
1.956950851474037
1.9569508514710594
1.9569508514710872
1.9569508514710594
1.9569508514710601
1.9569508514710594
1.9569508514710872
1.9569508514710594
1.956950851474037
1.9569508514710598
1.95695085171335
1.9569508514710761
1.9569508653433323
1.9569508514724347
1.9569513776229122
1.9569508515517031
1.9569629748612343
1.9569508538808968
1.9571001100546142
1.9569508467158845
1.9579122720843811
1.9764336540270668
1.9765232929361696
1.9764336569152654
1.9764407685595689
1.9764336561057632
1.9764339588435977
1.9764336560786402
1.9764336639293965
1.9764336560781832
1.9764336562132918
1.9764336560781786
1.9764336560798172
1.9764336560781783
1.976433656078193
1.9764336560781783
1.9764336560781786
1.9764336560781783
1.976433656078193
1.9764336560781783
1.9764336560798172
1.9764336560781786
1.9764336562132918
1.9764336560781832
1.9764336639293965
1.9764336560786402
1.9764339588435977
1.9764336561057632
1.9764407685595689
1.9764336569152654
1.9765232929361696
1.9764336540270668
1.9770226300899743
1.9872254262566362
1.9872769930636296
1.987225427304397
1.9872294557205998
1.9872254270425933
1.9872255964433656
1.987225427033894
1.9872254313827376
1.9872254270337497
1.9872254271079393
1.9872254270337475
1.9872254270346397
1.9872254270337475
1.987225427033755
1.9872254270337475
1.9872254270337475
1.9872254270337475
1.987225427033755
1.9872254270337475
1.9872254270346397
1.9872254270337475
1.9872254271079393
1.9872254270337497
1.9872254313827376
1.987225427033894
1.9872255964433656
1.9872254270425933
1.9872294557205998
1.987225427304397
1.9872769930636296
1.9872254262566362
1.9875683491468141
1.9931164699193746
1.9931451022819013
1.9931164702766886
1.9931186933593983
1.9931164701959656
1.9931165631665819
1.9931164701932864
1.9931164725684634
1.993116470193242
1.9931164702335868
1.9931164701932418
1.9931164701937247
1.9931164701932418
1.993116470193246
1.9931164701932418
1.9931164701932418
1.9931164701932418
1.993116470193246
1.9931164701932418
1.9931164701937247
1.9931164701932418
1.9931164702335868
1.993116470193242
1.9931164725684634
1.9931164701932864
1.9931165631665819
1.9931164701959656
1.9931186933593983
1.9931164702766886
1.9931451022819013
1.9931164699193746
1.993307149075715
1.9962998590593202
1.9963157848624091
1.9962998591709058
1.9963010836088579
1.9962998591464927
1.9962999100324383
1.9962998591456871
1.9962998604400781
1.9962998591456735
1.9962998591675902
1.9962998591456735
1.9962998591459367
1.9962998591456735
1.996299859145676
1.9962998591456735
1.9962998591456735
1.9962998591456735
1.996299859145676
1.9962998591456735
1.9962998591459367
1.9962998591456735
1.9962998591675902
1.9962998591456735
1.9962998604400781
1.9962998591456871
1.9962999100324383
1.9962998591464927
1.9963010836088579
1.9962998591709058
1.9963157848624091
1.9962998590593202
1.9964063974185799
1.9980695109323063
1.9980716491910517
1.9980695113720122
1.9980698321850909
1.9980695113566942
1.9980695288856125
1.99806951135583
1.9980695118711695
1.9980695113558129
1.9980695113653291
1.9980695113558129
1.9980695113559339
1.9980695113558129
1.998069511355814
1.9980695113558129
1.9980695113558129
1.9980695113558129
1.998069511355814
1.9980695113558129
1.9980695113559339
1.9980695113558129
1.9980695113653291
1.9980695113558129
1.9980695118711695
1.99806951135583
1.9980695288856125
1.9980695113566942
1.9980698321850909
1.9980695113720122
1.9980716491910517
1.9980695109323063
1.9980732653366724
1.9989356770681697
1.9989406102280793
1.9989356770719988
1.9989360535917879
1.9989356770705149
1.9989356926264141
1.9989356770704871
1.9989356774643765
1.9989356770704871
1.9989356770771325
1.9989356770704871
1.9989356770705657
1.9989356770704871
1.9989356770704874
1.9989356770704871
1.9989356770704871
1.9989356770704871
1.9989356770704874
1.9989356770704871
1.9989356770705657
1.9989356770704871
1.9989356770771325
1.9989356770704871
1.9989356774643765
1.9989356770704871
1.9989356926264141
1.9989356770705149
1.9989360535917879
1.9989356770719988
1.9989406102280793
1.9989356770681697
1.9989677689632452
2.0000565029105095
1.9999618678436195
2.0000565164868873
2.0000502548487513
2.0000565154449892
2.0000562923503291
2.0000565153996841
2.000056510501222
2.0000565153988261
2.000056515326639
2.0000565153988137
2.0000565153980578
2.0000565153988137
2.0000565153988084
2.0000565153988137
2.0000565153988137
2.0000565153988137
2.0000565153988084
2.0000565153988137
2.0000565153980578
2.0000565153988137
2.000056515326639
2.0000565153988261
2.000056510501222
2.0000565153996841
2.0000562923503291
2.0000565154449892
2.0000502548487513
2.0000565164868873
1.9999618678436195
2.0000565029105095
1.9994472213630763
1.999693562522181
1.9996957801682615
1.9996935624858401
1.9996937538295796
1.9996935625111407
1.9996935710219086
1.9996935625123973
1.9996935627384975
1.9996935625124255
1.9996935625163692
1.9996935625124259
1.9996935625124745
1.9996935625124259
1.9996935625124261
1.9996935625124259
1.9996935625124259
1.9996935625124259
1.9996935625124261
1.9996935625124259
1.9996935625124745
1.9996935625124259
1.9996935625163692
1.9996935625124255
1.9996935627384975
1.9996935625123973
1.9996935710219086
1.9996935625111407
1.9996937538295796
1.9996935624858401
1.9996957801682615
1.999693562522181
1.999704042886487
2.0027725273741797
2.0021949513964992
2.0027726009438207
2.002722802475398
2.002772557159255
2.0027703231945573
2.0027725556490807
2.0027724957083417
2.0027725556226388
2.0027725545673598
2.0027725556223213
2.0027725556093259
2.0027725556223182
2.0027725556221996
2.0027725556223182
2.0027725556223173
2.0027725556223182
2.0027725556221996
2.0027725556223182
2.0027725556093259
2.0027725556223213
2.0027725545673598
2.0027725556226388
2.0027724957083417
2.0027725556490807
2.0027703231945573
2.002772557159255
2.002722802475398
2.0027726009438207
2.0021949513964992
2.0027725273741797
1.9998415637808975
1.9999151889582765
1.9999151889582765
1.9999151889582765
1.9999151889582765
1.9999151889582765
1.9999151889582765
1.9999151889582765
1.9999151889582765
1.9999151889582765
1.9999151889582765
1.9999151889582765
1.9999151889582765
1.9999151889582765
1.9999151889582765
1.9999151889582765
1.9999151889582765
1.9999151889582765
1.9999151889582765
1.9999151889582765
1.9999151889582765
1.9999151889582765
1.9999151889582765
1.9999151889582765
1.9999151889582765
1.9999151889582765
1.9999151889582765
1.9999151889582765
1.9999151889582765
1.9999151889582765
1.9999151889582765
1.9999151889582765
1.9999151889582765
1.0041506683079768
1.0031427938858428
1.0041514429279308
1.003974092675882
1.0041510415782229
1.0041342695950133
1.0041510040566197
1.0041500552826756
1.0041510025083615
1.0041509674449189
1.0041510024672553
1.0041510015647184
1.0041510024664662
1.0041510024495017
1.0041510024664544
1.004151002465973
1.0041510024664544
1.0041510024495017
1.0041510024664662
1.0041510015647184
1.0041510024672553
1.0041509674449189
1.0041510025083615
1.0041500552826756
1.0041510040566197
1.0041342695950133
1.0041510415782229
1.003974092675882
1.0041514429279308
1.0031427938858428
1.0041506683079768
1.0000453978687025
1.000089999467165
1.0000889037960741
1.0000899994622956
1.0000898803857943
1.0000899994294867
1.000089991999499
1.0000899994305714
1.0000899991459957
1.0000899994307011
1.0000899994236891
1.0000899994307064
1.0000899994305943
1.0000899994307066
1.0000899994307058
1.0000899994307066
1.0000899994307066
1.0000899994307066
1.0000899994307058
1.0000899994307066
1.0000899994305943
1.0000899994307064
1.0000899994236891
1.0000899994307011
1.0000899991459957
1.0000899994305714
1.000089991999499
1.0000899994294867
1.0000898803857943
1.0000899994622956
1.0000889037960741
1.000089999467165
1.0000848110417238
1.0013213757080948
1.0009872810943152
1.0013215482694926
1.0012753710262954
1.0013215246102765
1.0013180309257377
1.0013215219837381
1.001321359320448
1.0013215218737157
1.001321516809847
1.0013215218708515
1.0013215217590672
1.0013215218707991
1.0013215218689711
1.0013215218707983
1.001321521870753
1.0013215218707983
1.0013215218689711
1.0013215218707991
1.0013215217590672
1.0013215218708515
1.001321516809847
1.0013215218737157
1.001321359320448
1.0013215219837381
1.0013180309257377
1.0013215246102765
1.0012753710262954
1.0013215482694926
1.0009872810943152
1.0013213757080948
1.0001584362191025
1.0002959714425601
1.0002961450982355
1.0002959715581199
1.0002960207744267
1.0002959715448447
1.0002959769814801
1.0002959715437576
1.0002959718692626
1.000295971543721
1.0002959715559743
1.0002959715437203
1.0002959715440363
1.0002959715437203
1.0002959715437263
1.0002959715437203
1.0002959715437203
1.0002959715437203
1.0002959715437263
1.0002959715437203
1.0002959715440363
1.0002959715437203
1.0002959715559743
1.000295971543721
1.0002959718692626
1.0002959715437576
1.0002959769814801
1.0002959715448447
1.0002960207744267
1.0002959715581199
1.0002961450982355
1.0002959714425601
1.0002959571135133
1.0007557601438304
1.000709209888015
1.0007557719949585
1.0007507374377049
1.0007557714643811
1.0007554662760996
1.0007557713796298
1.0007557597372494
1.0007557713759117
1.0007557710740556
1.0007557713758164
1.0007557713702044
1.0007557713758144
1.0007557713757373
1.0007557713758144
1.0007557713758124
1.0007557713758144
1.0007557713757373
1.0007557713758144
1.0007557713702044
1.0007557713758164
1.0007557710740556
1.0007557713759117
1.0007557597372494
1.0007557713796298
1.0007554662760996
1.0007557714643811
1.0007507374377049
1.0007557719949585
1.000709209888015
1.0007557601438304
1.0005527786369237
1.0010239921729733
1.0010264323960758
1.0010239921867903
1.0010243532351331
1.0010239921850805
1.0010240221434206
1.0010239921849142
1.0010239937232142
1.0010239921849093
1.001023992237664
1.0010239921849089
1.0010239921861874
1.0010239921849089
1.0010239921849307
1.0010239921849089
1.0010239921849102
1.0010239921849089
1.0010239921849307
1.0010239921849089
1.0010239921861874
1.0010239921849089
1.001023992237664
1.0010239921849093
1.0010239937232142
1.0010239921849142
1.0010240221434206
1.0010239921850805
1.0010243532351331
1.0010239921867903
1.0010264323960758
1.0010239921729733
1.001032231036755
1.0019303607525769
1.0019313073223313
1.0019303612170873
1.0019307105509263
1.0019303612096235
1.0019304002528773
1.0019303612075041
1.0019303635090833
1.0019303612074091
1.0019303612923982
1.0019303612074062
1.0019303612095558
1.0019303612074062
1.0019303612074464
1.0019303612074062
1.0019303612074075
1.0019303612074062
1.0019303612074464
1.0019303612074062
1.0019303612095558
1.0019303612074062
1.0019303612923982
1.0019303612074091
1.0019303635090833
1.0019303612075041
1.0019304002528773
1.0019303612096235
1.0019307105509263
1.0019303612170873
1.0019313073223313
1.0019303607525769
1.0019267346633276
1.003564897995604
1.0035732836652442
1.003564898082447
1.0035661306967656
1.0035648980665133
1.0035649998987015
1.0035648980650318
1.0035649032771132
1.0035648980649756
1.0035648982432388
1.003564898064975
1.0035648980692822
1.003564898064975
1.0035648980650511
1.003564898064975
1.003564898064977
1.003564898064975
1.0035648980650511
1.003564898064975
1.0035648980692822
1.003564898064975
1.0035648982432388
1.0035648980649756
1.0035649032771132
1.0035648980650318
1.0035649998987015
1.0035648980665133
1.0035661306967656
1.003564898082447
1.0035732836652442
1.003564897995604
1.0035936025814203
1.0066422573082783
1.0066571724344475
1.00664225758145
1.0066444672122044
1.0066422575292175
1.0066424407186301
1.0066422575244112
1.0066422669101671
1.0066422575242311
1.0066422578451335
1.0066422575242264
1.0066422575319753
1.0066422575242262
1.0066422575243641
1.0066422575242262
1.0066422575242304
1.0066422575242262
1.0066422575243641
1.0066422575242262
1.0066422575319753
1.0066422575242264
1.0066422578451335
1.0066422575242311
1.0066422669101671
1.0066422575244112
1.0066424407186301
1.0066422575292175
1.0066444672122044
1.00664225758145
1.0066571724344475
1.0066422573082783
1.006692850924285
1.0123402891463678
1.0123668745578431
1.0123402898999323
1.0123442147110353
1.0123402897324527
1.0123406142761617
1.0123402897175713
1.0123403062990652
1.0123402897170206
1.0123402902821301
1.0123402897170077
1.0123402897306057
1.0123402897170071
1.0123402897172493
1.0123402897170071
1.0123402897170137
1.0123402897170071
1.0123402897172493
1.0123402897170071
1.0123402897306057
1.0123402897170077
1.0123402902821301
1.0123402897170206
1.0123403062990652
1.0123402897175713
1.0123406142761617
1.0123402897324527
1.0123442147110353
1.0123402898999323
1.0123668745578431
1.0123402891463678
1.0124316508531859
1.0228190180361507
1.0228646124047216
1.0228190200517313
1.0228257535044982
1.0228190195417257
1.0228195750925815
1.0228190194979199
1.022819047758849
1.022819019496322
1.0228190204539385
1.0228190194962841
1.02281901951917
1.0228190194962834
1.0228190194966855
1.0228190194962834
1.0228190194962941
1.0228190194962834
1.0228190194966855
1.0228190194962834
1.02281901951917
1.0228190194962841
1.0228190204539385
1.022819019496322
1.022819047758849
1.0228190194979199
1.0228195750925815
1.0228190195417257
1.0228257535044982
1.0228190200517313
1.0228646124047216
1.0228190180361507
1.0229773699100257
1.0418185234487285
1.0418940841589757
1.0418185283930146
1.0418296416102182
1.0418185269355018
1.0418194370645211
1.0418185268156177
1.0418185726451155
1.0418185268113291
1.0418185283456631
1.0418185268112299
1.041818526847416
1.0418185268112272
1.0418185268118547
1.0418185268112272
1.0418185268112434
1.0418185268112272
1.0418185268118547
1.0418185268112272
1.041818526847416
1.0418185268112299
1.0418185283456631
1.0418185268113291
1.0418185726451155
1.0418185268156177
1.0418194370645211
1.0418185269355018
1.0418296416102182
1.0418185283930146
1.0418940841589757
1.0418185234487285
1.0420877279156189
1.075408593231677
1.0755286518716194
1.0754086041437549
1.0754260542271232
1.0754086003192449
1.0754100057400693
1.0754086000214087
1.0754086693543705
1.0754086000110799
1.0754086022793141
1.075408600010844
1.0754086000630241
1.0754086000108403
1.0754086000117222
1.0754086000108403
1.075408600010862
1.0754086000108403
1.0754086000117222
1.0754086000108403
1.0754086000630241
1.075408600010844
1.0754086022793141
1.0754086000110799
1.0754086693543705
1.0754086000214087
1.0754100057400693
1.0754086003192449
1.0754260542271232
1.0754086041437549
1.0755286518716194
1.075408593231677
1.0758581800212434
1.1322270632888733
1.13240840291348
1.1322270844030937
1.1322528316052296
1.1322270754447716
1.1322290846413008
1.1322270747934571
1.1322271702841862
1.1322270747718566
1.1322270777702652
1.1322270747713816
1.1322270748374157
1.1322270747713734
1.1322270747724412
1.1322270747713734
1.1322270747713996
1.1322270747713734
1.1322270747724412
1.1322270747713734
1.1322270748374157
1.1322270747713816
1.1322270777702652
1.1322270747718566
1.1322271702841862
1.1322270747934571
1.1322290846413008
1.1322270754447716
1.1322528316052296
1.1322270844030937
1.13240840291348
1.1322270632888733
1.1329642401978293
1.2215285849829605
1.2217861894628597
1.2215286199505819
1.2215637501384546
1.2215286019403329
1.2215311995663432
1.2215286007411807
1.2215287168047113
1.2215286007039741
1.2215286041141704
1.2215286007032085
1.2215286007732824
1.2215286007031971
1.2215286007042503
1.2215286007031965
1.2215286007032213
1.2215286007031965
1.2215286007042503
1.2215286007031971
1.2215286007732824
1.2215286007032085
1.2215286041141704
1.2215286007039741
1.2215287168047113
1.2215286007411807
1.2215311995663432
1.2215286019403329
1.2215637501384546
1.2215286199505819
1.2217861894628597
1.2215285849829605
1.2227001388253087
1.3469012044470994
1.3472383235755252
1.3469012529395101
1.3469443464261697
1.34690122386699
1.3469041621802831
1.3469012221371148
1.3469013422835783
1.3469012220882766
1.3469012253065935
1.3469012220873562
1.3469012221475198
1.3469012220873442
1.346901222088166
1.3469012220873442
1.3469012220873604
1.3469012220873442
1.346901222088166
1.3469012220873442
1.3469012221475198
1.3469012220873562
1.3469012253065935
1.3469012220882766
1.3469013422835783
1.3469012221371148
1.3469041621802831
1.34690122386699
1.3469443464261697
1.3469012529395101
1.3472383235755252
1.3469012044470994
1.3486451353339457
1.4977036636677554
1.4980940204345528
1.4977037175358541
1.4977494193854053
1.4977036829710719
1.4977065012390511
1.4977036811595803
1.4977037849413162
1.4977036811137605
1.4977036836135889
1.4977036811129827
1.4977036811549873
1.4977036811129729
1.4977036811134898
1.4977036811129729
1.4977036811129831
1.4977036811129729
1.4977036811134898
1.4977036811129729
1.4977036811549873
1.4977036811129827
1.4977036836135889
1.4977036811137605
1.4977037849413162
1.4977036811595803
1.4977065012390511
1.4977036829710719
1.4977494193854053
1.4977037175358541
1.4980940204345528
1.4977036636677554
1.5
1.6488176402677563
1.6492026662236274
1.6488176868215776
1.6488586602693165
1.6488176579258089
1.6488199413520823
1.6488176565786572
1.6488177325344433
1.6488176565478889
1.6488176582014813