# vtk DataFile Version 3.0
Euler density step 450
ASCII
DATASET STRUCTURED_POINTS
DIMENSIONS 32 32 32
ORIGIN 0 0 0
SPACING 0.3125 0.3125 0.3125
POINT_DATA 32768
SCALARS density double 1
LOOKUP_TABLE default
1.0084258637727463
1.0019734031752177
1.0084526223241175
1.0040586210350824
1.0084603751928789
1.0056193967377587
1.0084592816442606
1.00695132345841
1.008454554121446
1.0078724015910099
1.0084516246681547
1.0082918579129263
1.0084507808699181
1.0084183587555784
1.0084506365570387
1.0084411000305993
1.0084506365570387
1.0084183587555784
1.0084507808699181
1.0082918579129263
1.0084516246681547
1.0078724015910099
1.008454554121446
1.00695132345841
1.0084592816442606
1.0056193967377587
1.0084603751928789
1.0040586210350824
1.0084526223241175
1.0019734031752177
1.0084258637727463
1.0000453978687025
0.99998377053758558
1.0000535789380192
0.99998366962090679
1.0000222375117924
0.99998363866977336
1.0000012474658466
0.99998364231620829
0.99999044769330614
0.99998365369359898
0.99998585744480073
0.9999836609436048
0.99998423127652436
0.99998366331261013
0.99998377968494911
0.999983663779201
0.99998369907723283
0.999983663779201
0.99998377968494911
0.99998366331261013
0.99998423127652436
0.9999836609436048
0.99998585744480073
0.99998365369359898
0.99999044769330614
0.99998364231620829
1.0000012474658466
0.99998363866977336
1.0000222375117924
0.99998366962090679
1.0000535789380192
0.99998377053758558
1.0000848110417238
1.0077580830937141
1.0022099818408048
1.0077730982236435
1.0038900435288916
1.0077808450626899
1.0052582169494386
1.0077811901313425
1.0064936339455877
1.0077780093745368
1.0073136094035495
1.0077761329760613
1.00765826980177
1.0077756453067415
1.0077536107893108
1.0077755698320403
1.0077695595244849
1.0077755698320403
1.0077536107893108
1.0077756453067415
1.00765826980177
1.0077761329760613
1.0073136094035495
1.0077780093745368
1.0064936339455877
1.0077811901313425
1.0052582169494386
1.0077808450626899
1.0038900435288916
1.0077730982236435
1.0022099818408048
1.0077580830937141
1.0001584362191025
1.0000192859433026
1.0002023878419015
1.00001929093036
1.000121470086603
1.0000192749707355
1.0000653847895982
1.0000192660642202
1.0000357544986826
1.0000192683005047
1.0000238843638507
1.0000192715270062
1.0000202754415619
1.0000192726525183
1.0000194447890185
1.0000192728637336
1.0000193179362602
1.0000192728637336
1.0000194447890185
1.0000192726525183
1.0000202754415619
1.0000192715270062
1.0000238843638507
1.0000192683005047
1.0000357544986826
1.0000192660642202
1.0000653847895982
1.0000192749707355
1.000121470086603
1.00001929093036
1.0002023878419015
1.0000192859433026
1.0002959571135133
1.0064169446965847
1.0019865582707113
1.0064239059193545
1.0032655594888575
1.0064291178518563
1.0045008794484485
1.0064295785239417
1.0055664548167407
1.0064281440073672
1.0061592219188011
1.0064274302572029
1.00636801076244
1.0064272716667295
1.0064175101578583
1.0064272499620401
1.0064248698442404
1.0064272499620401
1.0064175101578583
1.0064272716667295
1.00636801076244
1.0064274302572029
1.0061592219188011
1.0064281440073672
1.0055664548167407
1.0064295785239417
1.0045008794484485
1.0064291178518563
1.0032655594888575
1.0064239059193545
1.0019865582707113
1.0064169446965847
1.0005527786369237
1.0004108927557742
1.0008297637639079
1.0004109778034613
1.0006514886305713
1.0004110172678256
1.0005226060035048
1.0004110143643752
1.0004508644424968
1.00041100869697
1.000421755106659
1.0004110073008823
1.0004132062631665
1.000411007153869
1.0004113583326075
1.0004110071486763
1.0004110932589791
1.0004110071486763
1.0004113583326075
1.000411007153869
1.0004132062631665
1.0004110073008823
1.000421755106659
1.00041100869697
1.0004508644424968
1.0004110143643752
1.0005226060035048
1.0004110172678256
1.0006514886305713
1.0004109778034613
1.0008297637639079
1.0004108927557742
1.001032231036755
1.0058750029393562
1.0029788267065864
1.0058780495139821
1.0039734654294006
1.0058804813567574
1.0048932554063763
1.0058807574130935
1.0055166487941827
1.0058804042210452
1.0057862480300073
1.0058802504218618
1.0058627323353204
1.0058802200252426
1.0058777761856867
1.0058802162162346
1.0058797037713438
1.0058802162162346
1.0058777761856867
1.0058802200252426
1.0058627323353204
1.0058802504218618
1.0057862480300073
1.0058804042210452
1.0055166487941827
1.0058807574130935
1.0048932554063763
1.0058804813567574
1.0039734654294006
1.0058780495139821
1.0029788267065864
1.0058750029393562
1.0019267346633276
1.0023792987026074
1.0032263156760446
1.0023795516211298
1.0028900923750206
1.0023797064363709
1.0026307561843855
1.0023797111299846
1.0024739244270378
1.0023796881902918
1.0024060091936335
1.0023796795613529
1.0023851967062898
1.0023796779627048
1.002380574503086
1.0023796777703673
1.0023799004908971
1.0023796777703673
1.002380574503086
1.0023796779627048
1.0023851967062898
1.0023796795613529
1.0024060091936335
1.0023796881902918
1.0024739244270378
1.0023797111299846
1.0026307561843855
1.0023797064363709
1.0028900923750206
1.0023795516211298
1.0032263156760446
1.0023792987026074
1.0035936025814203
1.0078714075734039
1.0071381638194943
1.0078727212893308
1.0075177433038773
1.0078736503254668
1.0077765876777203
1.0078737747355482
1.0078718133273168
1.0078737002627698
1.0078821109647598
1.0078736668051949
1.0078769983650175
1.0078736602077705
1.0078744087712517
1.0078736593889888
1.0078738843657742
1.0078736593889888
1.0078744087712517
1.0078736602077705
1.0078769983650175
1.0078736668051949
1.0078821109647598
1.0078737002627698
1.0078718133273168
1.0078737747355482
1.0077765876777203
1.0078736503254668
1.0075177433038773
1.0078727212893308
1.0071381638194943
1.0078714075734039
1.006692850924285
1.0103933074898237
1.0118650701318357
1.0103940423091009
1.0113183366141156
1.0103944809584304
1.0108749349397057
1.0103944688001867
1.0105848306688825
1.0103943738022048
1.0104500156448688
1.010394337304559
1.0104064246321365
1.010394330285364
1.0103963512546694
1.010394329413173
1.0103948424745186
1.010394329413173
1.0103963512546694
1.010394330285364
1.0104064246321365
1.010394337304559
1.0104500156448688
1.0103943738022048
1.0105848306688825
1.0103944688001867
1.0108749349397057
1.0103944809584304
1.0113183366141156
1.0103940423091009
1.0118650701318357
1.0103933074898237
1.0124316508531859
1.021549874409093
1.0227212540612376
1.0215512383976149
1.0223935416399688
1.0215520218769589
1.0220561409862694
1.0215520053316409
1.0217740608182835
1.0215518349991226
1.0216214312330971
1.0215517673781904
1.0215675801869359
1.021551754051617
1.021554477355731
1.021551752368498
1.0215524569663343
1.021551752368498
1.021554477355731
1.021551754051617
1.0215675801869359
1.0215517673781904
1.0216214312330971
1.0215518349991226
1.0217740608182835
1.0215520053316409
1.0220561409862694
1.0215520218769589
1.0223935416399688
1.0215512383976149
1.0227212540612376
1.021549874409093
1.0229773699100257
1.039049689005209
1.0413148677820587
1.0390517377736253
1.0405030240870075
1.039052728948439
1.0398385115584297
1.0390525787893121
1.0393775393366493
1.0390522634469086
1.039150532552777
1.039052144336863
1.0390740106331993
1.0390521211506936
1.0390558363358982
1.0390521182297501
1.0390530706062839
1.0390521182297501
1.0390558363358982
1.0390521211506936
1.0390740106331993
1.039052144336863
1.039150532552777
1.0390522634469086
1.0393775393366493
1.0390525787893121
1.0398385115584297
1.039052728948439
1.0405030240870075
1.0390517377736253
1.0413148677820587
1.039049689005209
1.0420877279156189
1.0725109097683374
1.0750969301748845
1.0725143236312713
1.0742009838897151
1.0725156648331151
1.0734554311038309
1.0725153239501652
1.0729129067281169
1.0725148008788459
1.0726365405329576
1.0725146077762753
1.0725418127079867
1.072514570416834
1.0725191857238545
1.0725145657259352
1.0725157431175532
1.0725145657259352
1.0725191857238545
1.072514570416834
1.0725418127079867
1.0725146077762753
1.0726365405329576
1.0725148008788459
1.0729129067281169
1.0725153239501652
1.0734554311038309
1.0725156648331151
1.0742009838897151
1.0725143236312713
1.0750969301748845
1.0725109097683374
1.0758581800212434
1.1285991174391254
1.1319325279746331
1.128604839133565
1.1307104143433415
1.1286064534512095
1.129762538517276
1.1286057306164234
1.1290912382285678
1.1286048982867822
1.1287522787752773
1.1286046045277178
1.1286371381110201
1.128604548966345
1.1286099800135723
1.1286045421010804
1.1286059032258238
1.1286045421010804
1.1286099800135723
1.128604548966345
1.1286371381110201
1.1286046045277178
1.1287522787752773
1.1286048982867822
1.1290912382285678
1.1286057306164234
1.129762538517276
1.1286064534512095
1.1307104143433415
1.128604839133565
1.1319325279746331
1.1285991174391254
1.1329642401978293
1.2174990439468329
1.2214489692642287
1.2175082326451532
1.2199779956598196
1.2175098457002047
1.2188714778817009
1.2175084969096741
1.2180795242692768
1.2175072511303799
1.2176784834445611
1.2175068352001055
1.2175438478609639
1.2175067593692483
1.2175127680833082
1.2175067502771297
1.2175082109469286
1.2175067502771297
1.2175127680833082
1.2175067593692483
1.2175438478609639
1.2175068352001055
1.2176784834445611
1.2175072511303799
1.2180795242692768
1.2175084969096741
1.2188714778817009
1.2175098457002047
1.2199779956598196
1.2175082326451532
1.2214489692642287
1.2174990439468329
1.2227001388253087
1.3422035409029232
1.3467955258141779
1.3422169432712352
1.3450709673228227
1.3422180659869718
1.343795502454123
1.3422158085589722
1.3428712247856822
1.3422140629459367
1.3424060053522835
1.3422135188585327
1.3422536109128556
1.3422134248075166
1.3422196621942912
1.3422134140346478
1.3422148628846444
1.3422134140346478
1.3422196621942912
1.3422134248075166
1.3422536109128556
1.3422135188585327
1.3424060053522835
1.3422140629459367
1.3428712247856822
1.3422158085589722
1.343795502454123
1.3422180659869718
1.3450709673228227
1.3422169432712352
1.3467955258141779
1.3422035409029232
1.3486451353339457
1.4919273007660683
1.4969423125831154
1.491944600593947
1.495110445574114
1.4919446331213755
1.4937118756078493
1.491941285873754
1.4926656183218481
1.4919390430620316
1.4921441642099662
1.4919383967273734
1.4919792869718298
1.4919382923566409
1.4919443044075611
1.4919382811139736
1.491939596527698
1.4919382811139736
1.4919443044075611
1.4919382923566409
1.4919792869718298
1.4919383967273734
1.4921441642099662
1.4919390430620316
1.4926656183218481
1.491941285873754
1.4937118756078493
1.4919446331213755
1.495110445574114
1.491944600593947
1.4969423125831154
1.4919273007660683
1.5
1.6414509952946159
1.6466665969755858
1.6414707080559821
1.6448564133737806
1.6414696689974135
1.6433744964085493
1.6414654102858073
1.6422269093824731
1.6414628483802762
1.6416684825630812
1.641462172926041
1.6415007586919177
1.6414620726800542
1.6414673664163097
1.6414620626874661
1.6414631414143701
1.6414620626874661
1.6414673664163097
1.6414620726800542
1.6415007586919177
1.641462172926041
1.6416684825630812
1.6414628483802762
1.6422269093824731
1.6414654102858073
1.6433744964085493
1.6414696689974135
1.6448564133737806
1.6414707080559821
1.6466665969755858
1.6414509952946159
1.6513548646660543
1.7663608974669891
1.77161100998106
1.766380518677803
1.7698915835419688
1.7663794289012205
1.7683407172048857
1.7663748881041303
1.7671244258519578
1.7663723707372538
1.7665622634451559
1.7663717689790848
1.7664049361209957
1.7663716876325264
1.7663759046983125
1.7663716801707703
1.7663724773082103
1.7663716801707703
1.7663759046983125
1.7663716876325264
1.7664049361209957
1.7663717689790848
1.7665622634451559
1.7663723707372538
1.7671244258519578
1.7663748881041303
1.7683407172048857
1.7663794289012205
1.7698915835419688
1.766380518677803
1.77161100998106
1.7663608974669891
1.7772998611746911
1.8561952353253408
1.8614613697902793
1.8562128047012763
1.8597605720807755
1.8562123987172314
1.8581177609614958
1.8562082956183952
1.8568888463054873
1.8562061948100936
1.8563661422087414
1.8562057407574257
1.8562316500651614
1.8562056847463067
1.8562087416113553
1.8562056799977718
1.8562062180021832
1.8562056799977718
1.8562087416113553
1.8562056847463067
1.8562316500651614
1.8562057407574257
1.8563661422087414
1.8562061948100936
1.8568888463054873
1.8562082956183952
1.8581177609614958
1.8562123987172314
1.8597605720807755
1.8562128047012763
1.8614613697902793
1.8561952353253408
1.8670357598021707
1.9144214910812265
1.9195048626948557
1.9144356299147307
1.9178201520627203
1.9144358721192054
1.9161451580916509
1.914432719624223
1.9149977152433284
1.9144312294557515
1.9145543303607377
1.9144309363920371
1.9144495139844255
1.9144309030893392
1.9144329528886723
1.9144309004548266
1.914431239439889
1.9144309004548266
1.9144329528886723
1.9144309030893392
1.9144495139844255
1.9144309363920371
1.9145543303607377
1.9144312294557515
1.9149977152433284
1.914432719624223
1.9161451580916509
1.9144358721192054
1.9178201520627203
1.9144356299147307
1.9195048626948557
1.9144214910812265
1.9241418199787566
1.9492588714076799
1.9541199675626291
1.9492691843599323
1.9523309799955679
1.9492697185264227
1.950690228941891
1.949267625954527
1.949700200928574
1.9492667118034446
1.9493544462443169
1.9492665466138368
1.9492789820717082
1.9492665291198163
1.9492678256443792
1.9492665278145453
1.9492667315536696
1.9492665278145453
1.9492678256443792
1.9492665291198163
1.9492789820717082
1.9492665466138368
1.9493544462443169
1.9492667118034446
1.949700200928574
1.949267625954527
1.950690228941891
1.9492697185264227
1.9523309799955679
1.9492691843599323
1.9541199675626291
1.9492588714076799
1.9579122720843811
1.9707045604675597
1.974475762705638
1.9707112219188294
1.9730635921876871
1.9707118252490412
1.9717532010389576
1.9707106569590285
1.9710106379399117
1.9707101713663919
1.9707679216732532
1.9707100889978726
1.970717900951096
1.9707100807319642
1.9707108615773714
1.9707100801430144
1.9707101983083204
1.9707100801430144
1.9707108615773714
1.9707100807319642
1.970717900951096
1.9707100889978726
1.9707679216732532
1.9707101713663919
1.9710106379399117
1.9707106569590285
1.9717532010389576
1.9707118252490412
1.9730635921876871
1.9707112219188294
1.974475762705638
1.9707045604675597
1.9770226300899743
1.9817914636931502
1.985264404342526
1.9817954690013642
1.9837383629661278
1.981795890791072
1.9825695740296096
1.9817952773663348
1.9820007812070199
1.9817950400497406
1.9818322664388224
1.9817950023829514
1.9817998057009283
1.9817949987921963
1.9817954608198947
1.9817949985466707
1.9817950662814585
1.9817949985466707
1.9817954608198947
1.9817949987921963
1.9817998057009283
1.9817950023829514
1.9818322664388224
1.9817950400497406
1.9820007812070199
1.9817952773663348
1.9825695740296096
1.981795890791072
1.9837383629661278
1.9817954690013642
1.985264404342526
1.9817914636931502
1.9875683491468141
1.9917069907250389
1.992659349330073
1.9917096520365087
1.9923540347029167
1.9917101546210616
1.9920113654130434
1.9917099124531008
1.9917983249055669
1.9917098081795328
1.9917268062302436
1.9917097913221975
1.9917120649201405
1.9917097897026854
1.9917100132980721
1.9917097895925207
1.9917098228145533
1.9917097895925207
1.9917100132980721
1.9917097897026854
1.9917120649201405
1.9917097913221975
1.9917268062302436
1.9917098081795328
1.9917983249055669
1.9917099124531008
1.9920113654130434
1.9917101546210616
1.9923540347029167
1.9917096520365087
1.992659349330073
1.9917069907250389
1.993307149075715
1.9933119505919896
1.9951684122741662
1.9933130315308765
1.9942527927788054
1.993313178707373
1.9936487399144422
1.9933130633177938
1.993394385408267
1.9933130221224047
1.9933267231776566
1.9933130161805037
1.9933146854008805
1.9933130156579715
1.9933131689168855
1.9933130156246361
1.9933130372575625
1.9933130156246361
1.9933131689168855
1.9933130156579715
1.9933146854008805
1.9933130161805037
1.9933267231776566
1.9933130221224047
1.993394385408267
1.9933130633177938
1.9936487399144422
1.993313178707373
1.9942527927788054
1.9933130315308765
1.9951684122741662
1.9933119505919896
1.9964063974185799
2.0009464550791898
1.998782594226753
2.0009503141096063
1.9996781639911527
2.0009510701098399
2.0004708657498251
2.0009506305208862
2.0008368501908165
2.000950450762335
2.0009325573850916
2.0009504222948915
2.0009484418763828
2.0009504195473364
2.0009502573346771
2.0009504193570433
2.0009503991579263
2.0009504193570433
2.0009502573346771
2.0009504195473364
2.0009484418763828
2.0009504222948915
2.0009325573850916
2.000950450762335
2.0008368501908165
2.0009506305208862
2.0004708657498251
2.0009510701098399
1.9996781639911527
2.0009503141096063
1.998782594226753
2.0009464550791898
1.9980732653366724
1.9976733372983355
1.9984395063594909
1.9976735361302989
1.998042491747118
1.9976735574232261
1.9978018836549487
1.9976735515224391
1.9977045091541017
1.9976735521371523
1.9976787966227625
1.9976735527133711
1.9976741970421219
1.9976735528137985
1.9976736124522527
1.9976735528235396
1.9976735612942076
1.9976735528235396
1.9976736124522527
1.9976735528137985
1.9976741970421219
1.9976735527133711
1.9976787966227625
1.9976735521371523
1.9977045091541017
1.9976735515224391
1.9978018836549487
1.9976735574232261
1.998042491747118
1.9976735361302989
1.9984395063594909
1.9976733372983355
1.9989677689632452
2.0047798035596127
2.0009058388969003
2.0047911479835308
2.0021751454139771
2.0047919236685563
2.0035582365488187
2.0047896423359997
2.0044260734266466
2.0047886977182405
2.0047190706979841
2.0047885357996407
2.004779316647141
2.0047885193112087
2.0047876260332149
2.0047885181196001
2.0047883878497563
2.0047885181196001
2.0047876260332149
2.0047885193112087
2.004779316647141
2.0047885357996407
2.0047190706979841
2.0047886977182405
2.0044260734266466
2.0047896423359997
2.0035582365488187
2.0047919236685563
2.0021751454139771
2.0047911479835308
2.0009058388969003
2.0047798035596127
1.9994472213630763
1.9992962237403107
1.9995484387619615
1.9992961501022009
1.9994133084004062
1.9992961527349846
1.9993385303252398
1.9992961754582819
1.999307756613532
1.9992961885427785
1.999298488487856
1.9992961917379555
1.9992965227959707
1.9992961921788215
1.9992962276346311
1.9992961922191426
1.9992961979377153
1.9992961922191426
1.9992962276346311
1.9992961921788215
1.9992965227959707
1.9992961917379555
1.999298488487856
1.9992961885427785
1.999307756613532
1.9992961754582819
1.9993385303252398
1.9992961527349846
1.9994133084004062
1.9992961501022009
1.9995484387619615
1.9992962237403107
1.999704042886487
2.0073590186649133
2.0026045833483486
2.007382816474343
2.0042838276836421
2.0073787495953614
2.0057806880540374
2.007373124883804
2.0068358170158724
2.0073708525488274
2.0072535562456544
2.0073704193272568
2.007352897709767
2.0073703703616164
2.0073684738163817
2.0073703665118381
2.0073700610427063
2.0073703665118381
2.0073684738163817
2.0073703703616164
2.007352897709767
2.0073704193272568
2.0072535562456544
2.0073708525488274
2.0068358170158724
2.007373124883804
2.0057806880540374
2.0073787495953614
2.0042838276836421
2.007382816474343
2.0026045833483486
2.0073590186649133
1.9998415637808975
1.9999151889582765
1.9999151889582765
1.9999151889582765
1.9999151889582765
1.9999151889582765
1.9999151889582765
1.9999151889582765
1.9999151889582765
1.9999151889582765
1.9999151889582765
1.9999151889582765
1.9999151889582765
1.9999151889582765
1.9999151889582765
1.9999151889582765
1.9999151889582765
1.9999151889582765
1.9999151889582765
1.9999151889582765
1.9999151889582765
1.9999151889582765
1.9999151889582765
1.9999151889582765
1.9999151889582765
1.9999151889582765
1.9999151889582765
1.9999151889582765
1.9999151889582765
1.9999151889582765
1.9999151889582765
1.9999151889582765
1.9999151889582765
1.0030180182724016
1.0013511252887348
1.0030369880124561
1.0019061449119844
1.0030370589810245
1.0021294910372582
1.0030359367050616
1.0023540145081031
1.0030338669962453
1.0026772270125508
1.0030320611020134
1.0029082116065113
1.0030313615906288
1.0030009151007055
1.003031209887465
1.0030208145035184
1.003031209887465
1.0030009151007055
1.0030313615906288
1.0029082116065113
1.0030320611020134
1.0026772270125508
1.0030338669962453
1.0023540145081031
1.0030359367050616
1.0021294910372582
1.0030370589810245
1.0019061449119844
1.0030369880124561
1.0013511252887348
1.0030180182724016
1.0000453978687025
1.0000304271124985
1.0000730008730634
1.0000303378376478
1.0000554147843499
1.0000303213934831
1.0000422206152191
1.0000303300489091
1.0000348956712655
1.0000303388329894
1.0000318071952568
1.000030344010296
1.0000307395732586
1.0000303459086306
1.000030434037549
1.0000303463413949
1.0000303759267755
1.0000303463413949
1.000030434037549
1.0000303459086306
1.0000307395732586
1.000030344010296
1.0000318071952568
1.0000303388329894
1.0000348956712655
1.0000303300489091
1.0000422206152191
1.0000303213934831
1.0000554147843499
1.0000303378376478
1.0000730008730634
1.0000304271124985
1.0000848110417238
1.0019880046271608
1.0006765459319258
1.001997002244247
1.0010203815783916
1.0019995855996189
1.0011498006082213
1.00200007263111
1.0013661472299396
1.0019986614503107
1.0016890556180431
1.0019973738945225
1.0018985666432518
1.0019969231478665
1.0019746796586282
1.0019968349487225
1.0019898079658254
1.0019968349487225
1.0019746796586282
1.0019969231478665
1.0018985666432518
1.0019973738945225
1.0016890556180431
1.0019986614503107
1.0013661472299396
1.00200007263111
1.0011498006082213
1.0019995855996189
1.0010203815783916
1.001997002244247
1.0006765459319258
1.0019880046271608
1.0001584362191025
1.0001602208539546
1.0002586248984817
1.0001602475306361
1.0002209397303796
1.0001602444151831
1.0001899110791299
1.0001602388248119
1.0001713655581279
1.0001602370538052
1.0001634859666919
1.0001602377530772
1.0001609875628696
1.0001602382904353
1.0001603780561903
1.0001602384322132
1.0001602786002151
1.0001602384322132
1.0001603780561903
1.0001602382904353
1.0001609875628696
1.0001602377530772
1.0001634859666919
1.0001602370538052
1.0001713655581279
1.0001602388248119
1.0001899110791299
1.0001602444151831
1.0002209397303796
1.0001602475306361
1.0002586248984817
1.0001602208539546
1.0002959571135133
1.0017235748636246
1.0007187840242111
1.0017269052957025
1.0008122474127299
1.0017292257858674
1.0009017813685328
1.0017298195557418
1.0012054692713277
1.001728999327735
1.0015170839275256
1.0017283945019486
1.0016712021071095
1.0017282189285379
1.0017171165427861
1.0017281891139878
1.0017250822820738
1.0017281891139878
1.0017171165427861
1.0017282189285379
1.0016712021071095
1.0017283945019486
1.0015170839275256
1.001728999327735
1.0012054692713277
1.0017298195557418
1.0009017813685328
1.0017292257858674
1.0008122474127299
1.0017269052957025
1.0007187840242111
1.0017235748636246
1.0005527786369237
1.0007665338406615
1.0009639735803919
1.0007665883259478
1.0008932610214398
1.0007666164670932
1.0008338911783676
1.0007666148712504
1.0007943084490676
1.0007666091020269
1.0007751751708167
1.000766607170926
1.0007685984743349
1.0007666068619054
1.0007669654927023
1.0007666068338099
1.0007667045945483
1.0007666068338099
1.0007669654927023
1.0007666068619054
1.0007685984743349
1.000766607170926
1.0007751751708167
1.0007666091020269
1.0007943084490676
1.0007666148712504
1.0008338911783676
1.0007666164670932
1.0008932610214398
1.0007665883259478
1.0009639735803919
1.0007665338406615
1.001032231036755
1.0030708730978202
1.0020757886961926
1.0030723065856901
1.0022180237191067
1.003073700504735
1.0024734656588123
1.003073980019628
1.0027872042018775
1.0030736954595063
1.0029824304486119
1.0030735283853085
1.0030533455389181
1.003073487141162
1.0030701995510678
1.0030734808821011
1.0030726886026518
1.0030734808821011
1.0030701995510678
1.003073487141162
1.0030533455389181
1.0030735283853085
1.0029824304486119
1.0030736954595063
1.0027872042018775
1.003073980019628
1.0024734656588123
1.003073700504735
1.0022180237191067
1.0030723065856901
1.0020757886961926
1.0030708730978202
1.0019267346633276
1.0031978028059609
1.0035176639977434
1.0031979278552654
1.0034217045063107
1.0031980102756648
1.0033318239600746
1.0031980148966075
1.0032591791385752
1.0031979989355397
1.0032183288664671
1.003197991555995
1.003202933305146
1.0031979899158245
1.0031989046747403
1.0031979896842034
1.0031982431482005
1.0031979896842034
1.0031989046747403
1.0031979899158245
1.003202933305146
1.003197991555995
1.0032183288664671
1.0031979989355397
1.0032591791385752
1.0031980148966075
1.0033318239600746
1.0031980102756648
1.0034217045063107
1.0031979278552654
1.0035176639977434
1.0031978028059609
1.0035936025814203
1.0075693685866505
1.0069500624740779
1.0075700859884535
1.0071710707209449
1.0075707040224033
1.0073911493728633
1.0075708100336169
1.0075235924318939
1.0075707389031099
1.0075655788376721
1.0075707005005878
1.0075714973078147
1.0075706915670841
1.0075711370128271
1.0075706902667425
1.0075708739582609
1.0075706902667425
1.0075711370128271
1.0075706915670841
1.0075714973078147
1.0075707005005878
1.0075655788376721
1.0075707389031099
1.0075235924318939
1.0075708100336169
1.0073911493728633
1.0075707040224033
1.0071710707209449
1.0075700859884535
1.0069500624740779
1.0075693685866505
1.006692850924285
1.0119623858233568
1.0123977904172645
1.0119626936618036
1.0122884538970931
1.0119628765676802
1.0121790316902313
1.0119628785233494
1.0120718183926489
1.0119628254967232
1.0120018305847229
1.0119627994072495
1.0119728087486601
1.011962793222692
1.0119647229885596
1.0119627923033645
1.0119633428789778
1.0119627923033645
1.0119647229885596
1.011962793222692
1.0119728087486601
1.0119627994072495
1.0120018305847229
1.0119628254967232
1.0120718183926489
1.0119628785233494
1.0121790316902313
1.0119628765676802
1.0122884538970931
1.0119626936618036
1.0123977904172645
1.0119623858233568
1.0124316508531859
1.023216275301871
1.0232202219098776
1.0232168790294847
1.0233112864808891
1.0232172309682166
1.023355905826508
1.023217248376578
1.0233165500123176
1.0232171601688016
1.0232593775974184
1.0232171144777678
1.0232290026293767
1.0232171032915334
1.023219525721746
1.0232171015914417
1.0232178159251157
1.0232171015914417
1.023219525721746
1.0232171032915334
1.0232290026293767
1.0232171144777678
1.0232593775974184
1.0232171601688016
1.0233165500123176
1.023217248376578
1.023355905826508
1.0232172309682166
1.0233112864808891
1.0232168790294847
1.0232202219098776
1.023216275301871
1.0229773699100257
1.0416346300636183
1.0421743037581193
1.0416354159988088
1.0420383270000313
1.0416357144318531
1.041924678595997
1.0416356720196873
1.0417948064886877
1.0416355304697464
1.0416964102858395
1.041635460089527
1.0416517958865847
1.0416354427909289
1.0416386871335703
1.0416354401393242
1.0416363828353201
1.0416354401393242
1.0416386871335703
1.0416354427909289
1.0416517958865847
1.041635460089527
1.0416964102858395
1.0416355304697464
1.0417948064886877
1.0416356720196873
1.041924678595997
1.0416357144318531
1.0420383270000313
1.0416354159988088
1.0421743037581193
1.0416346300636183
1.0420877279156189
1.0756513116356508
1.0761119518385664
1.075652591166457
1.0760152238714713
1.0756529072212815
1.0759456323518113
1.0756528081137113
1.0758276122041979
1.0756525992464883
1.075722306198406
1.0756524964052945
1.0756715621723723
1.0756524709701123
1.0756562834625143
1.0756524670499401
1.0756535747319269
1.0756524670499401
1.0756562834625143
1.0756524709701123
1.0756715621723723
1.0756524964052945
1.075722306198406
1.0756525992464883
1.0758276122041979
1.0756528081137113
1.0759456323518113
1.0756529072212815
1.0760152238714713
1.075652591166457
1.0761119518385664
1.0756513116356508
1.0758581800212434
1.1324310925074264
1.133126044207605
1.1324331146377802
1.1328976416054344
1.132433311329694
1.1327772086262649
1.1324331006013086
1.1326338985170581
1.1324328065223199
1.1325122057493859
1.1324326667346336
1.1324541688307093
1.1324326325325724
1.1324368709769395
1.1324326273017333
1.1324338385118895
1.1324326273017333
1.1324368709769395
1.1324326325325724
1.1324541688307093
1.1324326667346336
1.1325122057493859
1.1324328065223199
1.1326338985170581
1.1324331006013086
1.1327772086262649
1.132433311329694
1.1328976416054344
1.1324331146377802
1.133126044207605
1.1324310925074264
1.1329642401978293
1.2218583435421448
1.2225834275927911
1.2218611473033094
1.2223260849891968
1.2218610930584088
1.2222196061445365
1.2218607504425862
1.2220762328348305
1.221860370061427
1.2219456689335808
1.2218601958220208
1.2218829358555938
1.2218601541979828
1.2218645208091476
1.2218601479710187
1.2218613588584331
1.2218601479710187
1.2218645208091476
1.2218601541979828
1.2218829358555938
1.2218601958220208
1.2219456689335808
1.221860370061427
1.2220762328348305
1.2218607504425862
1.2222196061445365
1.2218610930584088
1.2223260849891968
1.2218611473033094
1.2225834275927911
1.2218583435421448
1.2227001388253087
1.3468127287466889
1.3475429483718702
1.346815878157654
1.3472833550132981
1.3468155115687594
1.3471901197402916
1.3468150527969651
1.347041744540354
1.3468146050755108
1.3469025253119782
1.3468144088080825
1.3468370363350162
1.3468143637202323
1.3468185147548035
1.3468143572239402
1.3468154533137977
1.3468143572239402
1.3468185147548035
1.3468143637202323
1.3468370363350162
1.3468144088080825
1.3469025253119782
1.3468146050755108
1.347041744540354
1.3468150527969651
1.3471901197402916
1.3468155115687594
1.3472833550132981
1.346815878157654
1.3475429483718702
1.3468127287466889
1.3486451353339457
1.4966782199735207
1.497295006057382
1.4966811055999969
1.4971199543829679
1.4966805823480325
1.4970590530098575
1.4966800931170829
1.4969090916678847
1.4966796282937447
1.4967651266036635
1.4966794337221521
1.4967002365271886
1.4966793915055419
1.4966829577646226
1.4966793857725649
1.4966802638580394
1.4966793857725649
1.4966829577646226
1.4966793915055419
1.4967002365271886
1.4966794337221521
1.4967651266036635
1.4966796282937447
1.4969090916678847
1.4966800931170829
1.4970590530098575
1.4966805823480325
1.4971199543829679
1.4966811055999969
1.497295006057382
1.4966782199735207
1.5
1.64683773688475
1.6473418020962811
1.646839839600958
1.6472540210006053
1.6468396286011604
1.647220225228853
1.6468392539523835
1.6470613580996663
1.6468388460232426
1.6469158771245993