# vtk DataFile Version 3.0
Euler density step 252
ASCII
DATASET STRUCTURED_POINTS
DIMENSIONS 32 32 32
ORIGIN 0 0 0
SPACING 0.3125 0.3125 0.3125
POINT_DATA 32768
SCALARS density double 1
LOOKUP_TABLE default
1.0048166337084168
1.002000917172259
1.0048221200233303
1.0037827304954339
1.0048210328828524
1.0045835152779339
1.0048204474577418
1.0047863739732985
1.0048203702899099
1.0048171149047751
1.0048203651054022
1.004820146298862
1.0048203648863185
1.0048203540707605
1.0048203648802572
1.004820364070115
1.0048203648802572
1.0048203540707605
1.0048203648863185
1.004820146298862
1.0048203651054022
1.0048171149047751
1.0048203702899099
1.0047863739732985
1.0048204474577418
1.0045835152779339
1.0048210328828524
1.0037827304954339
1.0048221200233303
1.002000917172259
1.0048166337084168
1.0000453978687025
1.0000864906774931
1.0000877293670696
1.0000864851082254
1.0000872634052602
1.0000864851464377
1.0000867262444124
1.0000864855995397
1.0000865285554519
1.0000864856765173
1.0000864905488687
1.0000864856822755
1.0000864860610996
1.0000864856825118
1.0000864857038434
1.0000864856825162
1.000086485684321
1.0000864856825162
1.0000864857038434
1.0000864856825118
1.0000864860610996
1.0000864856822755
1.0000864905488687
1.0000864856765173
1.0000865285554519
1.0000864855995397
1.0000867262444124
1.0000864851464377
1.0000872634052602
1.0000864851082254
1.0000877293670696
1.0000864906774931
1.0000848110417238
1.0037141673505978
1.0019328596423906
1.0037161164599337
1.0031472647408819
1.0037159951869801
1.0036066149323986
1.0037158826461572
1.0037025570560478
1.0037158692250627
1.0037147723927298
1.0037158684407852
1.0037158041313718
1.0037158684133434
1.0037158656141825
1.0037158684128256
1.0037158682267959
1.0037158684128256
1.0037158656141825
1.0037158684133434
1.0037158041313718
1.0037158684407852
1.0037147723927298
1.0037158692250627
1.0037025570560478
1.0037158826461572
1.0036066149323986
1.0037159951869801
1.0031472647408819
1.0037161164599337
1.0019328596423906
1.0037141673505978
1.0001584362191025
1.0002913074912561
1.0002944973990329
1.0002913080892748
1.0002925503706281
1.0002913079142886
1.0002915992561061
1.000291307916461
1.0002913503729081
1.0002913079198466
1.000291312040926
1.0002913079200884
1.0002913082030778
1.0002913079200906
1.0002913079345117
1.0002913079200901
1.0002913079212166
1.0002913079200901
1.0002913079345117
1.0002913079200906
1.0002913082030778
1.0002913079200884
1.000291312040926
1.0002913079198466
1.0002913503729081
1.000291307916461
1.0002915992561061
1.0002913079142886
1.0002925503706281
1.0002913080892748
1.0002944973990329
1.0002913074912561
1.0002959571135133
1.00194880444694
1.001338375256551
1.0019491415576476
1.0017899592219521
1.0019491503461349
1.0019240814770849
1.0019491421795692
1.0019465927937901
1.0019491412426111
1.0019489630781089
1.0019491411954884
1.0019491322174832
1.0019491411943562
1.0019491408560792
1.0019491411943637
1.0019491411748433
1.0019491411943637
1.0019491408560792
1.0019491411943562
1.0019491322174832
1.0019491411954884
1.0019489630781089
1.0019491412426111
1.0019465927937901
1.0019491421795692
1.0019240814770849
1.0019491503461349
1.0017899592219521
1.0019491415576476
1.001338375256551
1.00194880444694
1.0005527786369237
1.0009971000895004
1.0010148248467849
1.0009971005116138
1.0010023465919728
1.0009971004941147
1.0009980884670635
1.0009971004824421
1.0009972240955234
1.0009971004811964
1.0009971113017306
1.0009971004811149
1.0009971011742824
1.0009971004811107
1.0009971005148515
1.0009971004811107
1.0009971004836724
1.0009971004811107
1.0009971005148515
1.0009971004811107
1.0009971011742824
1.0009971004811149
1.0009971113017306
1.0009971004811964
1.0009972240955234
1.0009971004824421
1.0009980884670635
1.0009971004941147
1.0010023465919728
1.0009971005116138
1.0010148248467849
1.0009971000895004
1.001032231036755
1.0021843043503811
1.0020950061713223
1.0021843371532773
1.002167453142025
1.0021843394246506
1.0021826261359785
1.0021843391504524
1.0021842568363133
1.0021843391160741
1.0021843399800754
1.0021843391147733
1.0021843395303045
1.0021843391147798
1.0021843391473084
1.0021843391147827
1.0021843391179071
1.0021843391147827
1.0021843391473084
1.0021843391147798
1.0021843395303045
1.0021843391147733
1.0021843399800754
1.0021843391160741
1.0021842568363133
1.0021843391504524
1.0021826261359785
1.0021843394246506
1.002167453142025
1.0021843371532773
1.0020950061713223
1.0021843043503811
1.0019267346633276
1.0034810939040237
1.0035382191116451
1.0034810965016128
1.0034979337198169
1.0034810964984817
1.0034842551485048
1.003481096408501
1.00348149067536
1.0034810963973819
1.0034811308613401
1.0034810963966911
1.0034810986021809
1.0034810963966629
1.0034810965039063
1.0034810963966614
1.0034810964047916
1.0034810963966614
1.0034810965039063
1.0034810963966629
1.0034810986021809
1.0034810963966911
1.0034811308613401
1.0034810963973819
1.00348149067536
1.003481096408501
1.0034842551485048
1.0034810964984817
1.0034979337198169
1.0034810965016128
1.0035382191116451
1.0034810939040237
1.0035936025814203
1.006549861212694
1.006632324298286
1.0065498699576074
1.0065761197542493
1.0065498700370481
1.0065550422009613
1.0065498697684032
1.0065505343500827
1.00654986973494
1.0065499288212771
1.0065498697328805
1.0065498735515686
1.0065498697327955
1.0065498699195232
1.0065498697327933
1.0065498697469901
1.0065498697327933
1.0065498699195232
1.0065498697327955
1.0065498735515686
1.0065498697328805
1.0065499288212771
1.00654986973494
1.0065505343500827
1.0065498697684032
1.0065550422009613
1.0065498700370481
1.0065761197542493
1.0065498699576074
1.006632324298286
1.006549861212694
1.006692850924285
1.0121278206746942
1.0122886588328293
1.0121278386039454
1.0121762706057871
1.0121278379495549
1.01213707572348
1.0121278371474314
1.0121290028167336
1.0121278370509146
1.0121279395961598
1.0121278370448807
1.0121278436275254
1.0121278370446234
1.0121278373649385
1.0121278370446141
1.0121278370688724
1.0121278370446141
1.0121278373649385
1.0121278370446234
1.0121278436275254
1.0121278370448807
1.0121279395961598
1.0121278370509146
1.0121290028167336
1.0121278371474314
1.01213707572348
1.0121278379495549
1.0121762706057871
1.0121278386039454
1.0122886588328293
1.0121278206746942
1.0124316508531859
1.022509077913313
1.0227647037890886
1.0225091210411925
1.0225870762056188
1.0225091183494619
1.0225241193508123
1.0225091161430586
1.0225110180102679
1.0225091158823081
1.0225092834653466
1.0225091158660191
1.0225091266176294
1.0225091158653192
1.0225091163873823
1.022509115865297
1.0225091159047037
1.022509115865297
1.0225091163873823
1.0225091158653192
1.0225091266176294
1.0225091158660191
1.0225092834653466
1.0225091158823081
1.0225110180102679
1.0225091161430586
1.0225241193508123
1.0225091183494619
1.0225870762056188
1.0225091210411925
1.0227647037890886
1.022509077913313
1.0229773699100257
1.0413785619254143
1.0417743740045322
1.0413786592495107
1.0414999464518928
1.0413786499279007
1.0414020609223411
1.0413786442498971
1.0413816117406107
1.0413786435952779
1.0413789042781001
1.0413786435545971
1.0413786601915711
1.0413786435528467
1.0413786443550814
1.0413786435527881
1.0413786436128465
1.0413786435527881
1.0413786443550814
1.0413786435528467
1.0413786601915711
1.0413786435545971
1.0413789042781001
1.0413786435952779
1.0413816117406107
1.0413786442498971
1.0414020609223411
1.0413786499279007
1.0414999464518928
1.0413786592495107
1.0417743740045322
1.0413785619254143
1.0420877279156189
1.0748239051108983
1.0754124408957593
1.0748241106888026
1.0750047770196103
1.0748240825685826
1.07485890213122
1.0748240690539816
1.0748284553257685
1.0748240675460481
1.0748244490176866
1.0748240674534471
1.0748240914870855
1.0748240674494707
1.0748240685909596
1.0748240674493394
1.0748240675333744
1.0748240674493394
1.0748240685909596
1.0748240674494707
1.0748240914870855
1.0748240674534471
1.0748244490176866
1.0748240675460481
1.0748284553257685
1.0748240690539816
1.07485890213122
1.0748240825685826
1.0750047770196103
1.0748241106888026
1.0754124408957593
1.0748239051108983
1.0758581800212434
1.1314767074208953
1.1323217551932085
1.131477110632374
1.1317352486004695
1.1314770352069765
1.1315262918267881
1.1314770057200891
1.131483110353759
1.1314770025736103
1.1314775222900459
1.1314770023847094
1.1314770343145559
1.1314770023767056
1.1314770038509576
1.1314770023764447
1.1314770024816982
1.1314770023764447
1.1314770038509576
1.1314770023767056
1.1314770343145559
1.1314770023847094
1.1314775222900459
1.1314770025736103
1.131483110353759
1.1314770057200891
1.1315262918267881
1.1314770352069765
1.1317352486004695
1.131477110632374
1.1323217551932085
1.1314767074208953
1.1329642401978293
1.220565419768904
1.2217310361736269
1.2205661385799544
1.220918559720032
1.2205659601502163
1.2206319126976146
1.2205659022099575
1.2205738427716233
1.2205658963765227
1.2205665481881307
1.2205658960387527
1.2205659344238433
1.2205658960248282
1.2205658977154226
1.2205658960243846
1.2205658961390926
1.2205658960243846
1.2205658977154226
1.2205658960248282
1.2205659344238433
1.2205658960387527
1.2205665481881307
1.2205658963765227
1.2205738427716233
1.2205659022099575
1.2206319126976146
1.2205659601502163
1.220918559720032
1.2205661385799544
1.2217310361736269
1.220565419768904
1.2227001388253087
1.3456039869430207
1.3471299845101841
1.3456051202406805
1.3460610785012082
1.3456047544740017
1.345687637218185
1.3456046541775251
1.3456142007602363
1.3456046448012404
1.3456053861074935
1.3456046442881093
1.3456046852445471
1.345604644268017
1.3456046459496458
1.3456046442674114
1.3456046443733056
1.3456046442674114
1.3456046459496458
1.345604644268017
1.3456046852445471
1.3456046442881093
1.3456053861074935
1.3456046448012404
1.3456142007602363
1.3456046541775251
1.345687637218185
1.3456047544740017
1.3460610785012082
1.3456051202406805
1.3471299845101841
1.3456039869430207
1.3486451353339457
1.4958392994885503
1.4977101412133216
1.4958408454977419
1.4963909594410025
1.4958402272860196
1.4959359687097571
1.4958400825235285
1.4958504411674851
1.4958400702443355
1.4958408167671493
1.4958400696268532
1.4958401076105072
1.4958400696045628
1.4958400710333002
1.4958400696039447
1.4958400696861096
1.4958400696039447
1.4958400710333002
1.4958400696045628
1.4958401076105072
1.4958400696268532
1.4958408167671493
1.4958400702443355
1.4958504411674851
1.4958400825235285
1.4959359687097571
1.4958402272860196
1.4963909594410025
1.4958408454977419
1.4977101412133216
1.4958392994885503
1.5
1.6461734928391656
1.6482823109001692
1.6461752400776291
1.6467757070290194
1.6461744524150235
1.6462727696551809
1.6461742922541973
1.6461841525122525
1.6461742800847843
1.6461749337933815
1.6461742795301166
1.646174310001518
1.6461742795118657
1.6461742805592841
1.646174279511402
1.6461742795663825
1.646174279511402
1.6461742805592841
1.6461742795118657
1.646174310001518
1.6461742795301166
1.6461749337933815
1.6461742800847843
1.6461841525122525
1.6461742922541973
1.6462727696551809
1.6461744524150235
1.6467757070290194
1.6461752400776291
1.6482823109001692
1.6461734928391656
1.6513548646660543
1.7716747054028246
1.7738103787436623
1.7716762939995778
1.7722533472154232
1.7716755700583884
1.7717635893644426
1.7716754383375528
1.7716836139093324
1.771675429284006
1.7716759303602854
1.7716754289064505
1.7716754504869823
1.7716754288950043
1.7716754295802364
1.7716754288947365
1.771675428927965
1.7716754288947365
1.7716754295802364
1.7716754288950043
1.7716754504869823
1.7716754289064505
1.7716759303602854
1.771675429284006
1.7716836139093324
1.7716754383375528
1.7717635893644426
1.7716755700583884
1.7722533472154232
1.7716762939995778
1.7738103787436623
1.7716747054028246
1.7772998611746911
1.8617623578481666
1.8636806147396439
1.86176354101695
1.8622498326193293
1.8617630451308986
1.8618322430397674
1.861762961641825
1.8617689674073052
1.8617629563421041
1.8617633010896808
1.8617629561361102
1.8617629700681766
1.8617629561302613
1.8617629565458771
1.8617629561301312
1.8617629561490816
1.8617629561301312
1.8617629565458771
1.8617629561302613
1.8617629700681766
1.8617629561361102
1.8617633010896808
1.8617629563421041
1.8617689674073052
1.861762961641825
1.8618322430397674
1.8617630451308986
1.8622498326193293
1.86176354101695
1.8636806147396439
1.8617623578481666
1.8670357598021707
1.9198072619227391
1.9213400074864009
1.9198080030285027
1.9201727432827904
1.9198077340887458
1.919856584758741
1.919807691016397
1.9198117044064045
1.9198076884395134
1.9198079075050551
1.9198076883445099
1.9198076967896038
1.9198076883419393
1.9198076885827859
1.9198076883418849
1.9198076883524018
1.9198076883418849
1.9198076885827859
1.9198076883419393
1.9198076967896038
1.9198076883445099
1.9198079075050551
1.9198076884395134
1.9198117044064045
1.919807691016397
1.919856584758741
1.9198077340887458
1.9201727432827904
1.9198080030285027
1.9213400074864009
1.9198072619227391
1.9241418199787566
1.9547138858091293
1.9558196813486666
1.9547142836898581
1.954963220613757
1.9547141617312982
1.9547459107383192
1.9547141427580892
1.9547166444429187
1.9547141416701102
1.9547142733215481
1.9547141416315055
1.9547141465424029
1.9547141416304989
1.9547141417663618
1.9547141416304785
1.9547141416362444
1.9547141416304785
1.9547141417663618
1.9547141416304989
1.9547141465424029
1.9547141416315055
1.9547142733215481
1.9547141416701102
1.9547166444429187
1.9547141427580892
1.9547459107383192
1.9547141617312982
1.954963220613757
1.9547142836898581
1.9558196813486666
1.9547138858091293
1.9579122720843811
1.9748659012417864
1.9755982258883222
1.9748660879586977
1.9750238960269817
1.9748660396942499
1.9748854388811619
1.9748660322827156
1.9748675155455775
1.9748660318698994
1.974866107979667
1.974866031855645
1.9748660346331748
1.9748660318552818
1.9748660319306339
1.9748660318552749
1.974866031858415
1.9748660318552749
1.9748660319306339
1.9748660318552818
1.9748660346331748
1.974866031855645
1.974866107979667
1.9748660318698994
1.9748675155455775
1.9748660322827156
1.9748854388811619
1.9748660396942499
1.9750238960269817
1.9748660879586977
1.9755982258883222
1.9748659012417864
1.9770226300899743
1.9861959873295258
1.9866535664380545
1.9861960656318765
1.9862911625457593
1.98619604832039
1.9862074129348943
1.9861960456713965
1.9861968959463958
1.9861960455267804
1.9861960884082461
1.9861960455218834
1.9861960470645033
1.9861960455217615
1.9861960455630963
1.9861960455217584
1.9861960455234637
1.9861960455217584
1.9861960455630963
1.9861960455217615
1.9861960470645033
1.9861960455218834
1.9861960884082461
1.9861960455267804
1.9861968959463958
1.9861960456713965
1.9862074129348943
1.98619604832039
1.9862911625457593
1.9861960656318765
1.9866535664380545
1.9861959873295258
1.9875683491468141
1.9925915434360635
1.9928349943551693
1.9925915756626937
1.9926429624860618
1.9925915701808967
1.9925977449443264
1.9925915692969898
1.9925920314436518
1.9925915692484046
1.9925915925091622
1.9925915692467671
1.9925915700809991
1.9925915692467249
1.9925915692690013
1.9925915692467242
1.9925915692476406
1.9925915692467242
1.9925915692690013
1.9925915692467249
1.9925915700809991
1.9925915692467671
1.9925915925091622
1.9925915692484046
1.9925920314436518
1.9925915692969898
1.9925977449443264
1.9925915701808967
1.9926429624860618
1.9925915756626937
1.9928349943551693
1.9925915434360635
1.993307149075715
1.9959246484472926
1.996081971284716
1.9959246589854052
1.9959559126426774
1.9959246571552816
1.9959282679569077
1.9959246568739819
1.9959249204066989
1.9959246568590101
1.9959246699022133
1.9959246568585183
1.9959246573208327
1.9959246568585056
1.9959246568707443
1.9959246568585056
1.9959246568590046
1.9959246568585056
1.9959246568707443
1.9959246568585056
1.9959246573208327
1.9959246568585183
1.9959246699022133
1.9959246568590101
1.9959249204066989
1.9959246568739819
1.9959282679569077
1.9959246571552816
1.9959559126426774
1.9959246589854052
1.996081971284716
1.9959246484472926
1.9964063974185799
1.9986059190987917
1.9984433542552682
1.9986059801634526
1.9985835506173579
1.9986059776035967
1.9986043542517085
1.998605976796521
1.9986059122981576
1.9986059767440747
1.9986059755622221
1.998605976742122
1.998605976754303
1.9986059767420736
1.9986059767434983
1.9986059767420721
1.9986059767421656
1.9986059767420721
1.9986059767434983
1.9986059767420736
1.998605976754303
1.998605976742122
1.9986059755622221
1.9986059767440747
1.9986059122981576
1.998605976796521
1.9986043542517085
1.9986059776035967
1.9985835506173579
1.9986059801634526
1.9984433542552682
1.9986059190987917
1.9980732653366724
1.9988114699583952
1.9988643599403955
1.9988114704608855
1.9988219707665809
1.9988114704440676
1.9988126775055679
1.9988114704574744
1.9988115579276979
1.9988114704591471
1.9988114747545949
1.9988114704592335
1.998811470610298
1.9988114704592352
1.9988114704632063
1.9988114704592352
1.9988114704593971
1.9988114704592352
1.9988114704632063
1.9988114704592352
1.998811470610298
1.9988114704592335
1.9988114747545949
1.9988114704591471
1.9988115579276979
1.9988114704574744
1.9988126775055679
1.9988114704440676
1.9988219707665809
1.9988114704608855
1.9988643599403955
1.9988114699583952
1.9989677689632452
2.0024195529686812
2.0012662363155629
2.0024201613978123
2.0021879688954494
2.0024200575825333
2.0023941106541066
2.0024200391433955
2.0024182479129329
2.0024200380530646
2.0024199550355672
2.0024200380135295
2.0024200352698185
2.0024200380124966
2.0024200379448702
2.0024200380124757
2.0024200380099062
2.0024200380124757
2.0024200379448702
2.0024200380124966
2.0024200352698185
2.0024200380135295
2.0024199550355672
2.0024200380530646
2.0024182479129329
2.0024200391433955
2.0023941106541066
2.0024200575825333
2.0021879688954494
2.0024201613978123
2.0012662363155629
2.0024195529686812
1.9994472213630763
1.9996637848898866
1.9996835129191399
1.9996637814398106
1.9996687912083053
1.9996637832205681
1.999664474946343
1.9996637836113289
1.9996638410125083
1.9996637836416395
1.999663786765536
1.9996637836429849
1.9996637837619979
1.9996637836430258
1.9996637836463591
1.9996637836430269
1.9996637836431688
1.9996637836430269
1.9996637836463591
1.9996637836430258
1.9996637837619979
1.9996637836429849
1.999663786765536
1.9996637836416395
1.9996638410125083
1.9996637836113289
1.999664474946343
1.9996637832205681
1.9996687912083053
1.9996637814398106
1.9996835129191399
1.9996637848898866
1.999704042886487
2.0054996899095596
2.0029980645087844
2.0055019778058565
2.00486152248136
2.0055007865375245
2.0054115513793116
2.0055006054225371
2.0054931587249598
2.005500594525504
2.0055001876153291
2.0055005941215165
2.0055005785646194
2.0055005941106256
2.0055005936734727
2.0055005941104005
2.0055005940916875
2.0055005941104005
2.0055005936734727
2.0055005941106256
2.0055005785646194
2.0055005941215165
2.0055001876153291
2.005500594525504
2.0054931587249598
2.0055006054225371
2.0054115513793116
2.0055007865375245
2.00486152248136
2.0055019778058565
2.0029980645087844
2.0054996899095596
1.9998415637808975
1.9999151889582765
1.9999151889582765
1.9999151889582765
1.9999151889582765
1.9999151889582765
1.9999151889582765
1.9999151889582765
1.9999151889582765
1.9999151889582765
1.9999151889582765
1.9999151889582765
1.9999151889582765
1.9999151889582765
1.9999151889582765
1.9999151889582765
1.9999151889582765
1.9999151889582765
1.9999151889582765
1.9999151889582765
1.9999151889582765
1.9999151889582765
1.9999151889582765
1.9999151889582765
1.9999151889582765
1.9999151889582765
1.9999151889582765
1.9999151889582765
1.9999151889582765
1.9999151889582765
1.9999151889582765
1.9999151889582765
1.9999151889582765
1.0046124879028513
1.0026229868224241
1.004619162882981
1.0036898204779989
1.0046171904327117
1.0043451784590789
1.0046161188629668
1.0045676627928488
1.0046159363656937
1.0046103314248815
1.0046159197516706
1.0046154707093595
1.0046159187449881
1.004615892490534
1.0046159186999515
1.0046159163825623
1.0046159186999515
1.004615892490534
1.0046159187449881
1.0046154707093595
1.0046159197516706
1.0046103314248815
1.0046159363656937
1.0045676627928488
1.0046161188629668
1.0043451784590789
1.0046171904327117
1.0036898204779989
1.004619162882981
1.0026229868224241
1.0046124879028513
1.0000453978687025
1.0000870471901908
1.0000868140713071
1.0000870415087166
1.0000870932399715
1.0000870409153337
1.0000871033789511
1.0000870414872824
1.0000870627308811
1.0000870416337819
1.0000870452642221
1.0000870416504288
1.0000870420294494
1.0000870416515952
1.0000870416784826
1.0000870416516539
1.0000870416544012
1.0000870416516539
1.0000870416784826
1.0000870416515952
1.0000870420294494
1.0000870416504288
1.0000870452642221
1.0000870416337819
1.0000870627308811
1.0000870414872824
1.0000871033789511
1.0000870409153337
1.0000870932399715
1.0000870415087166
1.0000868140713071
1.0000870471901908
1.0000848110417238
1.0027318070959628
1.0012197807431289
1.0027344594724021
1.0021203657532505
1.0027341851291498
1.0025859664170078
1.0027339244794653
1.0027118390599121
1.0027338827531498
1.002731699421286
1.0027338792672087
1.0027337270468599
1.0027338790710667
1.0027338712175566
1.0027338790628648
1.0027338784437478
1.0027338790628648
1.0027338712175566
1.0027338790710667
1.0027337270468599
1.0027338792672087
1.002731699421286
1.0027338827531498
1.0027118390599121
1.0027339244794653
1.0025859664170078
1.0027341851291498
1.0021203657532505
1.0027344594724021
1.0012197807431289
1.0027318070959628
1.0001584362191025
1.0002977883561301
1.0002976015306411
1.0002977925691365
1.0002980082117794
1.0002977918068661
1.0002979205009772
1.0002977916051912
1.0002978213101534
1.0002977915913631
1.0002977954658492
1.0002977915912215
1.0002977919209681
1.0002977915912605
1.0002977916111311
1.0002977915912634
1.0002977915930433
1.0002977915912634
1.0002977916111311
1.0002977915912605
1.0002977919209681
1.0002977915912215
1.0002977954658492
1.0002977915913631
1.0002978213101534
1.0002977916051912
1.0002979205009772
1.0002977918068661
1.0002980082117794
1.0002977925691365
1.0002976015306411
1.0002977883561301
1.0002959571135133
1.0018690622893676
1.001195481998147
1.0018696035559016
1.0016540817322854
1.0018696046249438
1.0018282198812329
1.0018695772049249
1.0018645115687064
1.0018695729011737
1.0018691501945836
1.0018695725562483
1.0018695471686034
1.0018695725377291
1.0018695713923556
1.0018695725369959
1.0018695724570641
1.0018695725369959
1.0018695713923556
1.0018695725377291
1.0018695471686034
1.0018695725562483
1.0018691501945836
1.0018695729011737
1.0018645115687064
1.0018695772049249
1.0018282198812329
1.0018696046249438
1.0016540817322854
1.0018696035559016
1.001195481998147
1.0018690622893676
1.0005527786369237
1.0010018069842859
1.0010183774329606
1.0010018084130143
1.0010074333258865
1.0010018083442078
1.0010030346098511
1.0010018082919345
1.0010019836387254
1.0010018082859304
1.0010018255399178
1.0010018082855678
1.001001809509237
1.0010018082855536
1.0010018083506447
1.0010018082855536
1.00100180829089
1.0010018082855536
1.0010018083506447
1.0010018082855536
1.001001809509237
1.0010018082855678
1.0010018255399178
1.0010018082859304
1.0010019836387254
1.0010018082919345
1.0010030346098511
1.0010018083442078
1.0010074333258865
1.0010018084130143
1.0010183774329606
1.0010018069842859
1.001032231036755
1.0022549010666331
1.002118636174447
1.0022549670726117
1.0022221402031104
1.0022549709499031
1.0022503942066263
1.0022549693386003
1.0022545834086387
1.0022549690656797
1.0022549495341864
1.0022549690439326
1.0022549685741766
1.0022549690428038
1.0022549690524629
1.0022549690427609
1.0022549690456006
1.0022549690427609
1.0022549690524629
1.0022549690428038
1.0022549685741766
1.0022549690439326
1.0022549495341864
1.0022549690656797
1.0022545834086387
1.0022549693386003
1.0022503942066263
1.0022549709499031
1.0022221402031104
1.0022549670726117
1.002118636174447
1.0022549010666331
1.0019267346633276
1.0034911394104093
1.0035470199279477
1.0034911434671581
1.0035099247963617
1.0034911433242781
1.0034951879509157
1.0034911431131324
1.003491716051498
1.0034911430829301
1.0034911991030286
1.0034911430806668
1.0034911470371022
1.0034911430805504
1.0034911432904203
1.003491143080546
1.0034911430977198
1.003491143080546
1.0034911432904203
1.0034911430805504
1.0034911470371022
1.0034911430806668
1.0034911991030286
1.0034911430829301
1.003491716051498
1.0034911431131324
1.0034951879509157
1.0034911433242781
1.0035099247963617
1.0034911434671581
1.0035470199279477
1.0034911394104093
1.0035936025814203
1.0065944041155601
1.0066615740159908
1.0065944189348541
1.0066205078803188
1.0065944188623477
1.0066005703328456
1.0065944182245905
1.0065953364149383
1.0065944181293098
1.0065945106925183
1.0065944181220474
1.0065944247800771
1.0065944181216742
1.0065944184788156
1.0065944181216591
1.0065944181510824
1.0065944181216591
1.0065944184788156
1.0065944181216742
1.0065944247800771
1.0065944181220474
1.0065945106925183
1.0065944181293098
1.0065953364149383
1.0065944182245905
1.0066005703328456
1.0065944188623477
1.0066205078803188
1.0065944189348541
1.0066615740159908
1.0065944041155601
1.006692850924285
1.012176480509194
1.0123224919204739
1.0121765047218416
1.012227295126702
1.0121765026571998
1.0121877512047905
1.0121765010218811
1.0121781245618595
1.0121765007934385
1.0121766613911318
1.0121765007763541
1.0121765121943977
1.0121765007754764
1.0121765013831201
1.0121765007754431
1.0121765008252077
1.0121765007754431
1.0121765013831201
1.0121765007754764
1.0121765121943977
1.0121765007763541
1.0121766613911318
1.0121765007934385
1.0121781245618595
1.0121765010218811
1.0121877512047905
1.0121765026571998
1.012227295126702
1.0121765047218416
1.0123224919204739
1.012176480509194
1.0124316508531859
1.022607709621713
1.0228266351515365
1.0226077638728095
1.0226857424455169
1.0226077574034051
1.0226253326848416
1.0226077532587481
1.0226103154240791
1.0226077526896267
1.0226080073073607
1.022607752647303
1.0226077707689709
1.0226077526451351
1.0226077536082281
1.0226077526450528
1.0226077527236939
1.0226077526450528
1.0226077536082281
1.0226077526451351
1.0226077707689709
1.022607752647303
1.0226080073073607
1.0226077526896267
1.0226103154240791
1.0226077532587481
1.0226253326848416
1.0226077574034051
1.0226857424455169
1.0226077638728095
1.0228266351515365
1.022607709621713
1.0229773699100257
1.0415472190503252
1.0418687663764186
1.0415473315364663
1.0416629419391947
1.041547313107797
1.0415735938540203
1.0415473033782467
1.0415511468090342
1.0415473020750916
1.0415476834504824
1.0415473019792236
1.0415473289898851
1.0415473019743497
1.0415473033993241
1.0415473019741617
1.0415473020894659
1.0415473019741617
1.0415473033993241
1.0415473019743497
1.0415473289898851
1.0415473019792236
1.0415476834504824
1.0415473020750916
1.0415511468090342
1.0415473033782467
1.0415735938540203
1.041547313107797
1.0416629419391947
1.0415473315364663
1.0418687663764186
1.0415472190503252
1.0420877279156189
1.0750928069869388
1.0755399402706673
1.0750930229808195
1.0752553187560978
1.0750929762287689
1.0751300664039241
1.0750929553573751
1.0750983630269029
1.0750929526502946
1.0750934841835427
1.075092952454636
1.0750929895802785
1.0750929524448343
1.0750929543702847
1.0750929524444628
1.0750929525972981
1.0750929524444628
1.0750929543702847
1.0750929524448343
1.0750929895802785
1.075092952454636
1.0750934841835427
1.0750929526502946
1.0750983630269029
1.0750929553573751
1.0751300664039241
1.0750929762287689
1.0752553187560978
1.0750930229808195
1.0755399402706673
1.0750928069869388
1.0758581800212434
1.1318604270628017
1.1324562941914598
1.1318608045532781
1.1320776487358677
1.1318606991662978
1.131910029891775
1.1318606588311948
1.1318677422477572
1.1318606538235936
1.1318613341266384
1.1318606534720046
1.1318606996426461
1.1318606534548314
1.1318606557719035
1.1318606534541931
1.1318606536316471
1.1318606534541931
1.1318606557719035
1.1318606534548314
1.1318606996426461
1.1318606534720046
1.1318613341266384
1.1318606538235936
1.1318677422477572
1.1318606588311948
1.131910029891775
1.1318606991662978
1.1320776487358677
1.1318608045532781
1.1324562941914598
1.1318604270628017
1.1329642401978293
1.221066780618878
1.2218212879498915
1.2210673652830788
1.221341762993283
1.221067158871679
1.2211285965772347
1.221067090160084
1.2210756360893165
1.2210670821019349
1.2210678683892522
1.2210670815609057
1.221067132290772
1.2210670815355973
1.2210670839422644
1.2210670815347002
1.2210670817082911
1.2210670815347002
1.2210670839422644
1.2210670815355973
1.221067132290772
1.2210670815609057
1.2210678683892522
1.2210670821019349
1.2210756360893165
1.221067090160084
1.2211285965772347
1.221067158871679
1.221341762993283
1.2210673652830788
1.2218212879498915
1.221066780618878
1.2227001388253087
1.3462508565717162
1.3471526662112809
1.3462516441653074
1.3465792884893795
1.3462513027605203
1.3463222359020177
1.3462512027822355
1.3462605271667387
1.3462511919493778
1.3462519919147686
1.3462511912725728
1.3462512390145791
1.3462511912431179
1.3462511933274364
1.3462511912421504
1.346251191380111
1.3462511912421504
1.3462511933274364
1.3462511912431179
1.3462512390145791
1.3462511912725728
1.3462519919147686
1.3462511919493778
1.3462605271667387
1.3462512027822355
1.3463222359020177
1.3462513027605203
1.3465792884893795
1.3462516441653074
1.3471526662112809
1.3462508565717162
1.3486451353339457
1.4967520891663972
1.4977734546568655
1.4967529896301908
1.4971166278900856
1.4967525448188341
1.4968262712462366
1.4967524299051991
1.4967613243155264
1.4967524187090391
1.4967531129670077
1.4967524180752805
1.4967524556257057
1.496752418050215
1.4967524195332262
1.4967524180494669
1.4967524181382497
1.4967524180494669
1.4967524195332262
1.496752418050215
1.4967524556257057
1.4967524180752805
1.4967531129670077
1.4967524187090391
1.4967613243155264
1.4967524299051991
1.4968262712462366
1.4967525448188341
1.4971166278900856
1.4967529896301908
1.4977734546568655
1.4967520891663972
1.5
1.6475384187336479
1.6486176887501189
1.6475392520578076
1.6479000777740387
1.6475388345365733
1.6476053133835755
1.6475387381472955
1.6475459773613355
1.6475387297449411