# vtk DataFile Version 3.0
Euler density step 452
ASCII
DATASET STRUCTURED_POINTS
DIMENSIONS 32 32 32
ORIGIN 0 0 0
SPACING 0.3125 0.3125 0.3125
POINT_DATA 32768
SCALARS density double 1
LOOKUP_TABLE default
1.0084470998718338
1.0019707109374973
1.008474101004105
1.0040548227006685
1.0084819464974846
1.0056126245144847
1.0084809427774708
1.0069451884563969
1.0084761969227725
1.0078769326556385
1.0084731853511171
1.0083068418034511
1.008472301767698
1.0084381467109715
1.0084721483718384
1.0084619929053604
1.0084721483718384
1.0084381467109715
1.008472301767698
1.0083068418034511
1.0084731853511171
1.0078769326556385
1.0084761969227725
1.0069451884563969
1.0084809427774708
1.0056126245144847
1.0084819464974846
1.0040548227006685
1.008474101004105
1.0019707109374973
1.0084470998718338
1.0000453978687025
0.99998082336636129
1.0000526642980139
0.99998072074780087
1.0000205168681591
0.99998068924383532
0.99999891080628323
0.999980692838637
0.99998775336664891
0.99998070435277131
0.99998300075963797
0.99998071181685388
0.99998131037336524
0.99998071429747493
0.99998083758417111
0.99998071479354533
0.99998075255281915
0.99998071479354533
0.99998083758417111
0.99998071429747493
0.99998131037336524
0.99998071181685388
0.99998300075963797
0.99998070435277131
0.99998775336664891
0.999980692838637
0.99999891080628323
0.99998068924383532
1.0000205168681591
0.99998072074780087
1.0000526642980139
0.99998082336636129
1.0000848110417238
1.0077815339306233
1.0022082969845081
1.0077967030041495
1.0038897278325329
1.0078045368298643
1.0052539174937487
1.0078049814103598
1.0064903742451756
1.0078017765203797
1.0073219648203655
1.0077998335763922
1.0076765642600645
1.007799318742306
1.0077759875762033
1.0077992378261789
1.0077928010062169
1.0077992378261789
1.0077759875762033
1.007799318742306
1.0076765642600645
1.0077998335763922
1.0073219648203655
1.0078017765203797
1.0064903742451756
1.0078049814103598
1.0052539174937487
1.0078045368298643
1.0038897278325329
1.0077967030041495
1.0022082969845081
1.0077815339306233
1.0001584362191025
1.0000121467309135
1.0002003816222618
1.0000121520266918
1.0001176143966286
1.0000121360504011
1.0000599826761025
1.0000121268876128
1.0000293441143673
1.0000121290920994
1.0000169845790929
1.0000121324446403
1.0000131973089408
1.0000121336386036
1.0000123179600258
1.0000121338663657
1.0000121825877613
1.0000121338663657
1.0000123179600258
1.0000121336386036
1.0000131973089408
1.0000121324446403
1.0000169845790929
1.0000121290920994
1.0000293441143673
1.0000121268876128
1.0000599826761025
1.0000121360504011
1.0001176143966286
1.0000121520266918
1.0002003816222618
1.0000121467309135
1.0002959571135133
1.0064315808603772
1.0019815551540125
1.0064386125549003
1.0032551988605649
1.0064439142530055
1.004483971522754
1.0064444429213908
1.0055566455346969
1.0064429777189696
1.0061628225421257
1.0064422284590995
1.0063795426318338
1.0064420588696377
1.0064316310693555
1.0064420353162813
1.0064394629519742
1.0064420353162813
1.0064316310693555
1.0064420588696377
1.0063795426318338
1.0064422284590995
1.0061628225421257
1.0064429777189696
1.0055566455346969
1.0064444429213908
1.004483971522754
1.0064439142530055
1.0032551988605649
1.0064386125549003
1.0019815551540125
1.0064315808603772
1.0005527786369237
1.000397636994073
1.0008264488315954
1.0003977244153206
1.0006449769389241
1.0003977657547796
1.0005131843430706
1.0003977630136893
1.0004392970152511
1.0003977570594731
1.0004090546473541
1.0003977555609092
1.0004000886410818
1.0003977554003698
1.0003981316267041
1.0003977553946295
1.0003978485138079
1.0003977553946295
1.0003981316267041
1.0003977554003698
1.0004000886410818
1.0003977555609092
1.0004090546473541
1.0003977570594731
1.0004392970152511
1.0003977630136893
1.0005131843430706
1.0003977657547796
1.0006449769389241
1.0003977244153206
1.0008264488315954
1.000397636994073
1.001032231036755
1.0059032987472885
1.0029763635829427
1.0059063916903472
1.0039692628164283
1.0059088960781437
1.0048941696625764
1.005909199660173
1.0055302131243129
1.005908832619514
1.0058095479544298
1.0059086687083032
1.0058899566647048
1.0059086357683873
1.0059059912261592
1.0059086315832484
1.00590807005253
1.0059086315832484
1.0059059912261592
1.0059086357683873
1.0058899566647048
1.0059086687083032
1.0058095479544298
1.005908832619514
1.0055302131243129
1.005909199660173
1.0048941696625764
1.0059088960781437
1.0039692628164283
1.0059063916903472
1.0029763635829427
1.0059032987472885
1.0019267346633276
1.0023608140010929
1.0032226387566283
1.0023610734853956
1.0028826825446857
1.002361234528685
1.0026193951459634
1.0023612403733175
1.0024589350989761
1.0023612164235263
1.0023887655011732
1.0023612072341388
1.0023670380589766
1.002361205506948
1.0023621625777837
1.0023612052966469
1.0023614453365495
1.0023612052966469
1.0023621625777837
1.002361205506948
1.0023670380589766
1.0023612072341388
1.0023887655011732
1.0023612164235263
1.0024589350989761
1.0023612403733175
1.0026193951459634
1.002361234528685
1.0028826825446857
1.0023610734853956
1.0032226387566283
1.0023608140010929
1.0035936025814203
1.0079064945458795
1.0071455293307991
1.0079078420469012
1.0075333859909947
1.007908809810576
1.0078021195418259
1.007908944907941
1.0079042711031538
1.0079088671809273
1.0079169826508296
1.007908831404094
1.0079122241070133
1.0079088242399277
1.0079096053225995
1.0079088233389459
1.0079090619267117
1.0079088233389459
1.0079096053225995
1.0079088242399277
1.0079122241070133
1.007908831404094
1.0079169826508296
1.0079088671809273
1.0079042711031538
1.007908944907941
1.0078021195418259
1.007908809810576
1.0075333859909947
1.0079078420469012
1.0071455293307991
1.0079064945458795
1.006692850924285
1.010372246778334
1.0118621993802781
1.0103729958595182
1.0113124176580801
1.0103734489025167
1.0108650094525331
1.0103734397182762
1.0105699117622833
1.0103733413133738
1.0104313304369561
1.010373302746735
1.0103860272203713
1.0103732952177999
1.0103754448266791
1.0103732942706012
1.0103738453499767
1.0103732942706012
1.0103754448266791
1.0103732952177999
1.0103860272203713
1.010373302746735
1.0104313304369561
1.0103733413133738
1.0105699117622833
1.0103734397182762
1.0108650094525331
1.0103734489025167
1.0113124176580801
1.0103729958595182
1.0118621993802781
1.010372246778334
1.0124316508531859
1.0215633368992734
1.0227292382954936
1.0215647276718787
1.0224089444088069
1.0215655374148174
1.02207604955704
1.0215655275161157
1.0217930565719033
1.0215653520192969
1.0216375042731811
1.0215652808517317
1.0215818609325349
1.0215652666048654
1.0215681541386417
1.0215652647822766
1.0215660196055281
1.0215652647822766
1.0215681541386417
1.0215652666048654
1.0215818609325349
1.0215652808517317
1.0216375042731811
1.0215653520192969
1.0217930565719033
1.0215655275161157
1.02207604955704
1.0215655374148174
1.0224089444088069
1.0215647276718787
1.0227292382954936
1.0215633368992734
1.0229773699100257
1.0390279987630924
1.0413129205055922
1.0390300789814155
1.0404991088709765
1.0390310975232646
1.0398316126129103
1.0390309528189479
1.0393649673142886
1.0390306282348707
1.0391326507352106
1.0390305032362241
1.0390534400136917
1.0390304785311515
1.0390344169871915
1.0390304753794377
1.0390314950808204
1.0390304753794377
1.0390344169871915
1.0390304785311515
1.0390534400136917
1.0390305032362241
1.0391326507352106
1.0390306282348707
1.0393649673142886
1.0390309528189479
1.0398316126129103
1.0390310975232646
1.0404991088709765
1.0390300789814155
1.0413129205055922
1.0390279987630924
1.0420877279156189
1.0725016628081776
1.0750999536622019
1.0725051262892189
1.0742063510075643
1.0725065030046887
1.0734611051128771
1.0725061687249906
1.0729138885177139
1.0725056317789512
1.0726317840928878
1.072505429729701
1.072533920803999
1.0725053900373605
1.0725102757617189
1.0725053849900972
1.0725066439814901
1.0725053849900972
1.0725102757617189
1.0725053900373605
1.072533920803999
1.072505429729701
1.0726317840928878
1.0725056317789512
1.0729138885177139
1.0725061687249906
1.0734611051128771
1.0725065030046887
1.0742063510075643
1.0725051262892189
1.0750999536622019
1.0725016628081776
1.0758581800212434
1.1285756313278292
1.1319309942719882
1.1285814360516979
1.1307068907794982
1.1285830930702827
1.1297572719022693
1.1285823752445292
1.1290799667673701
1.1285815219914483
1.128734129579166
1.1285812152639214
1.1286152601043766
1.128581156366453
1.1285869011444465
1.128581148996983
1.1285826033837751
1.128581148996983
1.1285869011444465
1.128581156366453
1.1286152601043766
1.1285812152639214
1.128734129579166
1.1285815219914483
1.1290799667673701
1.1285823752445292
1.1297572719022693
1.1285830930702827
1.1307068907794982
1.1285814360516979
1.1319309942719882
1.1285756313278292
1.1329642401978293
1.2174781248712065
1.2214495601485769
1.2174874476092896
1.219977246688271
1.2174891068682581
1.2188703594120704
1.2174877595311329
1.2180724400183855
1.2174864838707451
1.2176636628855357
1.2174860502537403
1.2175247618773004
1.217485970001531
1.2174923233260668
1.217485960258277
1.217487520609285
1.217485960258277
1.2174923233260668
1.217485970001531
1.2175247618773004
1.2174860502537403
1.2176636628855357
1.2174864838707451
1.2180724400183855
1.2174877595311329
1.2188703594120704
1.2174891068682581
1.219977246688271
1.2174874476092896
1.2214495601485769
1.2174781248712065
1.2227001388253087
1.3421794032946659
1.3467950070719126
1.3421929988373813
1.3450683139875037
1.3421941657710308
1.3437933097569115
1.3421919033243959
1.3428627224524228
1.3421901165859398
1.3423886925937363
1.3421895497776202
1.3422314834817548
1.342189450328076
1.3421960466367124
1.3421894387948339
1.3421909870686168
1.3421894387948339
1.3421960466367124
1.342189450328076
1.3422314834817548
1.3421895497776202
1.3423886925937363
1.3421901165859398
1.3428627224524228
1.3421919033243959
1.3437933097569115
1.3421941657710308
1.3450683139875037
1.3421929988373813
1.3467950070719126
1.3421794032946659
1.3486451353339457
1.4919014575959921
1.4969373435197622
1.4919189952751186
1.4951055008004415
1.4919190630461807
1.4937097208336683
1.4919157019416489
1.4926570244303647
1.4919134058480339
1.4921256788708979
1.4919127324735657
1.4919555248062892
1.491912622110555
1.4919189849330803
1.4919126100746496
1.4919140171433192
1.4919126100746496
1.4919189849330803
1.491912622110555
1.4919555248062892
1.4919127324735657
1.4921256788708979
1.4919134058480339
1.4926570244303647
1.4919157019416489
1.4937097208336683
1.4919190630461807
1.4951055008004415
1.4919189952751186
1.4969373435197622
1.4919014575959921
1.5
1.6414170337096445
1.6466499779584665
1.6414370045829105
1.6448425865483556
1.6414359936046179
1.6433659570623356
1.641431712056268
1.6422114713162823
1.6414290863881642
1.6416420807535235
1.64142838181302
1.6414688095248147
1.6414282756799907
1.6414338858573829
1.6414282649690131
1.6414294206556497
1.6414282649690131
1.6414338858573829
1.6414282756799907
1.6414688095248147
1.64142838181302
1.6416420807535235
1.6414290863881642
1.6422114713162823
1.641431712056268
1.6433659570623356
1.6414359936046179
1.6448425865483556
1.6414370045829105
1.6466499779584665
1.6414170337096445
1.6513548646660543
1.7663228306482766
1.771586301275254
1.7663426962780084
1.7698731912466501
1.7663416466368633
1.7683300325256859
1.7663370760032733
1.7671055382896581
1.7663344899366793
1.7665314842538278
1.7663338606803163
1.7663686704594672
1.7663337743528629
1.7663382514381925
1.7663337663367071
1.7663346219355915
1.7663337663367071
1.7663382514381925
1.7663337743528629
1.7663686704594672
1.7663338606803163
1.7665314842538278
1.7663344899366793
1.7671055382896581
1.7663370760032733
1.7683300325256859
1.7663416466368633
1.7698731912466501
1.7663426962780084
1.771586301275254
1.7663228306482766
1.7772998611746911
1.8561571024694372
1.8614365970034286
1.8561748922754993
1.8597447531509395
1.8561745470075222
1.8581093571389262
1.8561704071189138
1.8568695186384794
1.8561682414708642
1.8563345086766205
1.8561677650900659
1.8561950119308612
1.8561677054708581
1.8561709570152842
1.8561677003555048
1.8561682788893097
1.8561677003555048
1.8561709570152842
1.8561677054708581
1.8561950119308612
1.8561677650900659
1.8563345086766205
1.8561682414708642
1.8568695186384794
1.8561704071189138
1.8581093571389262
1.8561745470075222
1.8597447531509395
1.8561748922754993
1.8614365970034286
1.8561571024694372
1.8670357598021707
1.9143946529057221
1.9194908157001342
1.9144089801162258
1.9178193072589356
1.9144092919993434
1.9161488734757826
1.9144061002955071
1.9149878589304687
1.9144045579010522
1.9145328032218525
1.9144042492948659
1.9144238250314409
1.914404213732287
1.91440639798873
1.9144042108859922
1.9144045760035551
1.9144042108859922
1.91440639798873
1.914404213732287
1.9144238250314409
1.9144042492948659
1.9145328032218525
1.9144045579010522
1.9149878589304687
1.9144061002955071
1.9161488734757826
1.9144092919993434
1.9178193072589356
1.9144089801162258
1.9194908157001342
1.9143946529057221
1.9241418199787566
1.9492238545552982
1.9541094862500246
1.9492343250895448
1.9523288623386204
1.9492349218094047
1.9506848866046231
1.9492327938393657
1.9496793520353521
1.9492318435140117
1.9493234457140873
1.9492316689064308
1.949244797072158
1.9492316501645071
1.9492330339161366
1.9492316487502084
1.9492318684898622
1.9492316487502084
1.9492330339161366
1.9492316501645071
1.949244797072158
1.9492316689064308
1.9493234457140873
1.9492318435140117
1.9496793520353521
1.9492327938393657
1.9506848866046231
1.9492349218094047
1.9523288623386204
1.9492343250895448
1.9541094862500246
1.9492238545552982
1.9579122720843811
1.9706901056256598
1.9744773831159108
1.9706968837394929
1.9730764730404369
1.970697536385265
1.9717622364506013
1.9706963443127643
1.9710065539768755
1.9706958375871158
1.9707562287260401
1.9706957502251674
1.9707040086076981
1.9706957413427255
1.9706965756695565
1.9706957407028061
1.970695868266563
1.9706957407028061
1.9706965756695565
1.9706957413427255
1.9707040086076981
1.9706957502251674
1.9707562287260401
1.9706958375871158
1.9710065539768755
1.9706963443127643
1.9717622364506013
1.970697536385265
1.9730764730404369
1.9706968837394929
1.9744773831159108
1.9706901056256598
1.9770226300899743
1.9817480694979719
1.9852570340591258
1.9817521585861486
1.9837277365705113
1.9817526118299915
1.9825467169972393
1.9817519825719021
1.9819651113181331
1.9817517338234452
1.9817907481151367
1.9817516937278159
1.9817567800876124
1.9817516898574892
1.9817521841616819
1.9817516895900007
1.9817517627828027
1.9817516895900007
1.9817521841616819
1.9817516898574892
1.9817567800876124
1.9817516937278159
1.9817907481151367
1.9817517338234452
1.9819651113181331
1.9817519825719021
1.9825467169972393
1.9817526118299915
1.9837277365705113
1.9817521585861486
1.9852570340591258
1.9817480694979719
1.9875683491468141
1.9917055739029201
1.9926589096910599
1.9917083019361557
1.9923581930850265
1.9917088325618533
1.9920161780128669
1.991708584039412
1.9917998901953184
1.9917084744124491
1.9917262323576599
1.9917084564163534
1.9917108579644749
1.9917084546656558
1.9917086933892767
1.9917084545452661
1.9917084903812268
1.9917084545452661
1.9917086933892767
1.9917084546656558
1.9917108579644749
1.9917084564163534
1.9917262323576599
1.9917084744124491
1.9917998901953184
1.991708584039412
1.9920161780128669
1.9917088325618533
1.9923581930850265
1.9917083019361557
1.9926589096910599
1.9917055739029201
1.993307149075715
1.9932742313809189
1.9951597501968574
1.9932753429144319
1.9942358159143045
1.9932755000657096
1.9936214393078984
1.9932753808194315
1.9933600245957916
1.9932753373336729
1.9932897382157924
1.9932753309701443
1.993277102675536
1.9932753304039565
1.9932754946717974
1.9932753303674691
1.9932753537774024
1.9932753303674691
1.9932754946717974
1.9932753304039565
1.993277102675536
1.9932753309701443
1.9932897382157924
1.9932753373336729
1.9933600245957916
1.9932753808194315
1.9936214393078984
1.9932755000657096
1.9942358159143045
1.9932753429144319
1.9951597501968574
1.9932742313809189
1.9964063974185799
2.0009374384070897
1.9987682171440371
2.0009413730229073
1.9996522785137893
2.0009421661563076
2.0004491373548414
2.000941714430355
2.0008233650492921
2.0009415255159344
2.0009226797224327
2.000941495158675
2.0009393840212764
2.0009414921941175
2.000941317211649
2.0009414919866462
2.000941469943748
2.0009414919866462
2.000941317211649
2.0009414921941175
2.0009393840212764
2.000941495158675
2.0009226797224327
2.0009415255159344
2.0008233650492921
2.000941714430355
2.0004491373548414
2.0009421661563076
1.9996522785137893
2.0009413730229073
1.9987682171440371
2.0009374384070897
1.9980732653366724
1.9976515972835422
1.9984329510572161
1.9976518037711639
1.9980299454922115
1.9976518267674326
1.9977843198054204
1.9976518203842339
1.997684067314089
1.9976518209157788
1.9976573360756675
1.997651821513335
1.9976525057508892
1.9976518216202248
1.9976518855842413
1.9976518216307575
1.9976518308049778
1.9976518216307575
1.9976518855842413
1.9976518216202248
1.9976525057508892
1.997651821513335
1.9976573360756675
1.9976518209157788
1.997684067314089
1.9976518203842339
1.9977843198054204
1.9976518267674326
1.9980299454922115
1.9976518037711639
1.9984329510572161
1.9976515972835422
1.9989677689632452
2.0047646485700956
2.0008956207223418
2.0047761331477263
2.0021463092416258
2.0047769737854977
2.0035223549425845
2.0047746577502674
2.0044003047578549
2.0047736780514249
2.004701120321549
2.0047735073913415
2.004763789111625
2.0047734897864724
2.0047725375526726
2.0047734885001778
2.0047733481372751
2.0047734885001778
2.0047725375526726
2.0047734897864724
2.004763789111625
2.0047735073913415
2.004701120321549
2.0047736780514249
2.0044003047578549
2.0047746577502674
2.0035223549425845
2.0047769737854977
2.0021463092416258
2.0047761331477263
2.0008956207223418
2.0047646485700956
1.9994472213630763
1.9992874857209737
1.9995456734264179
1.9992874112846428
1.999407708295964
1.9992874139934371
1.9993310779308944
1.9992874369074225
1.9992994395112624
1.9992874503591471
1.9992898535549992
1.9992874537004919
1.9992878029113765
1.9992874541682109
1.9992874919492152
1.9992874542115253
1.99928746036715
1.9992874542115253
1.9992874919492152
1.9992874541682109
1.9992878029113765
1.9992874537004919
1.9992898535549992
1.9992874503591471
1.9992994395112624
1.9992874369074225
1.9993310779308944
1.9992874139934371
1.999407708295964
1.9992874112846428
1.9995456734264179
1.9992874857209737
1.999704042886487
2.0073587416308265
2.0025997648029912
2.0073828116563237
2.0042713089561839
2.0073787627495374
2.0057604497927812
2.007373082033554
2.0068229587068229
2.0073707478949165
2.0072492941092803
2.0073702958841979
2.0073519519834258
2.0073702441117041
2.0073682368667241
2.0073702399946201
2.0073699133066252
2.0073702399946201
2.0073682368667241
2.0073702441117041
2.0073519519834258
2.0073702958841979
2.0072492941092803
2.0073707478949165
2.0068229587068229
2.007373082033554
2.0057604497927812
2.0073787627495374
2.0042713089561839
2.0073828116563237
2.0025997648029912
2.0073587416308265
1.9998415637808975
1.9999151889582765
1.9999151889582765
1.9999151889582765
1.9999151889582765
1.9999151889582765
1.9999151889582765
1.9999151889582765
1.9999151889582765
1.9999151889582765
1.9999151889582765
1.9999151889582765
1.9999151889582765
1.9999151889582765
1.9999151889582765
1.9999151889582765
1.9999151889582765
1.9999151889582765
1.9999151889582765
1.9999151889582765
1.9999151889582765
1.9999151889582765
1.9999151889582765
1.9999151889582765
1.9999151889582765
1.9999151889582765
1.9999151889582765
1.9999151889582765
1.9999151889582765
1.9999151889582765
1.9999151889582765
1.9999151889582765
1.9999151889582765
1.0029970130164922
1.0013405101719806
1.0030161055622526
1.0018918935667052
1.0030161713524632
1.0021126521208967
1.0030150530165418
1.0023297185455149
1.0030130112789286
1.0026498848658707
1.0030111828777684
1.0028834214878453
1.0030104598286924
1.0029786442401218
1.0030103004678232
1.0029993149713206
1.0030103004678232
1.0029786442401218
1.0030104598286924
1.0028834214878453
1.0030111828777684
1.0026498848658707
1.0030130112789286
1.0023297185455149
1.0030150530165418
1.0021126521208967
1.0030161713524632
1.0018918935667052
1.0030161055622526
1.0013405101719806
1.0029970130164922
1.0000453978687025
1.0000291024319381
1.0000727164983507
1.0000290116385633
1.0000547794118508
1.0000289948951657
1.0000412826569296
1.0000290037028865
1.0000337409264981
1.0000290126144911
1.0000305426108593
1.0000290179110056
1.0000294323267456
1.000029019881814
1.0000291129339849
1.0000290203377098
1.0000290518395512
1.0000290203377098
1.0000291129339849
1.000029019881814
1.0000294323267456
1.0000290179110056
1.0000305426108593
1.0000290126144911
1.0000337409264981
1.0000290037028865
1.0000412826569296
1.0000289948951657
1.0000547794118508
1.0000290116385633
1.0000727164983507
1.0000291024319381
1.0000848110417238
1.0019773867975814
1.0006726351653907
1.00198645634978
1.0010153946294273
1.0019890294247251
1.0011435825965658
1.0019895456821148
1.0013514711238316
1.0019881584396757
1.0016719438974651
1.0019868466286448
1.0018845045704672
1.001986377207261
1.001963024837015
1.0019862838199716
1.0019788190685182
1.0019862838199716
1.001963024837015
1.001986377207261
1.0018845045704672
1.0019868466286448
1.0016719438974651
1.0019881584396757
1.0013514711238316
1.0019895456821148
1.0011435825965658
1.0019890294247251
1.0010153946294273
1.00198645634978
1.0006726351653907
1.0019773867975814
1.0001584362191025
1.0001577620645292
1.0002581836346625
1.0001577891158158
1.0002200380444926
1.0001577861319468
1.0001884454064316
1.0001577805804731
1.0001693736960326
1.0001577787544025
1.0001611903652259
1.0001577794640586
1.0001585729391904
1.0001577800269303
1.0001579291721796
1.0001577801780492
1.0001578233956816
1.0001577801780492
1.0001579291721796
1.0001577800269303
1.0001585729391904
1.0001577794640586
1.0001611903652259
1.0001577787544025
1.0001693736960326
1.0001577805804731
1.0001884454064316
1.0001577861319468
1.0002200380444926
1.0001577891158158
1.0002581836346625
1.0001577620645292
1.0002959571135133
1.0017078390656828
1.0007158571974408
1.0017111903491906
1.0008079309428368
1.0017135103028332
1.0008877058565937
1.0017141428062801
1.0011823190502842
1.0017133247081254
1.0014950110885461
1.0017126996784267
1.001652936918225
1.0017125144581829
1.0017007560431019
1.0017124825140473
1.0017091527131401
1.0017124825140473
1.0017007560431019
1.0017125144581829
1.001652936918225
1.0017126996784267
1.0014950110885461
1.0017133247081254
1.0011823190502842
1.0017141428062801
1.0008877058565937
1.0017135103028332
1.0008079309428368
1.0017111903491906
1.0007158571974408
1.0017078390656828
1.0005527786369237
1.0007633267921139
1.0009636986412884
1.0007633822170448
1.0008925520233602
1.00076341133678
1.0008324717101185
1.0007634099650526
1.0007920702068862
1.0007634039914564
1.0007723490429052
1.0007634019474334
1.0007655010471026
1.0007634016149718
1.0007637834121705
1.0007634015843139
1.0007635066368787
1.0007634015843139
1.0007637834121705
1.0007634016149718
1.0007655010471026
1.0007634019474334
1.0007723490429052
1.0007634039914564
1.0007920702068862
1.0007634099650526
1.0008324717101185
1.00076341133678
1.0008925520233602
1.0007633822170448
1.0009636986412884
1.0007633267921139
1.001032231036755
1.0030542502738835
1.0020686234966598
1.0030556879620143
1.002202708231051
1.0030571011844496
1.0024493802562977
1.0030574014179876
1.0027625201684829
1.0030571114019367
1.0029618750601923
1.003056935898424
1.003035583433918
1.003056891787411
1.0030533673162689
1.0030568849995893
1.0030560252616583
1.0030568849995893
1.0030533673162689
1.003056891787411
1.003035583433918
1.003056935898424
1.0029618750601923
1.0030571114019367
1.0027625201684829
1.0030574014179876
1.0024493802562977
1.0030571011844496
1.002202708231051
1.0030556879620143
1.0020686234966598
1.0030542502738835
1.0019267346633276
1.0031965504287015
1.00351834380938
1.0031966771806422
1.003422788503042
1.0031967618988888
1.0033329492808147
1.0031967673068787
1.003259613193735
1.0031967508707496
1.0032178586728775
1.0031967431045739
1.003201928278141
1.0031967413519203
1.0031977114644708
1.0031967411013101
1.0031970125616481
1.0031967411013101
1.0031977114644708
1.0031967413519203
1.003201928278141
1.0031967431045739
1.0032178586728775
1.0031967508707496
1.003259613193735
1.0031967673068787
1.0033329492808147
1.0031967618988888
1.003422788503042
1.0031966771806422
1.00351834380938
1.0031965504287015
1.0035936025814203
1.0075770536101225
1.0069485734583166
1.0075777795078891
1.0071684426707135
1.007578415382032
1.0073907735356165
1.0075785293969746
1.0075276981733323
1.0075784559947656
1.0075723956451992
1.007578415314982
1.0075791027911354
1.007578405703355
1.0075788548100113
1.007578404286348
1.0075785954816954
1.007578404286348
1.0075788548100113
1.007578405703355
1.0075791027911354
1.007578415314982
1.0075723956451992
1.0075784559947656
1.0075276981733323
1.0075785293969746
1.0073907735356165
1.007578415382032
1.0071684426707135
1.0075777795078891
1.0069485734583166
1.0075770536101225
1.006692850924285
1.01196524319656
1.0123998719557039
1.0119655535560481
1.0122921124258699
1.011965739998288
1.012184138761808
1.0119657438564733
1.0120769930249833
1.0119656897664984
1.0120059764503544
1.0119656625465652
1.0119761172106272
1.0119656559885739
1.0119676942528888
1.011965655000842
1.0119662424794542
1.011965655000842
1.0119676942528888
1.0119656559885739
1.0119761172106272
1.0119656625465652
1.0120059764503544
1.0119656897664984
1.0120769930249833
1.0119657438564733
1.012184138761808
1.011965739998288
1.0122921124258699
1.0119655535560481
1.0123998719557039
1.01196524319656
1.0124316508531859
1.0232358811576998
1.023225471607575
1.0232364915164283
1.0233214888008468
1.0232368522588391
1.0233721607210844
1.023236874098739
1.0233366257088194
1.023236784540752
1.023279977361137
1.0232367370101763
1.0232490767215725
1.0232367251778376
1.0232392723896344
1.0232367233551707
1.0232374829105919
1.0232367233551707
1.0232392723896344
1.0232367251778376
1.0232490767215725
1.0232367370101763
1.023279977361137
1.023236784540752
1.0233366257088194
1.023236874098739
1.0233721607210844
1.0232368522588391
1.0233214888008468
1.0232364915164283
1.023225471607575
1.0232358811576998
1.0229773699100257
1.0416411927826696
1.0421777475998397
1.041641983756302
1.0420436020999415
1.0416422859065777
1.0419324805404433
1.0416422469682867
1.0418038798452622
1.0416421036726373
1.0417046904476606
1.0416420308149903
1.0416590229468725
1.041642012604185
1.041645426600438
1.0416420097745147
1.0416430121900317
1.0416420097745147
1.041645426600438
1.041642012604185
1.0416590229468725
1.0416420308149903
1.0417046904476606
1.0416421036726373
1.0418038798452622
1.0416422469682867
1.0419324805404433
1.0416422859065777
1.0420436020999415
1.041641983756302
1.0421777475998397
1.0416411927826696
1.0420877279156189
1.0756681652245408
1.0761191326725534
1.075669453888382
1.0760263781890744
1.0756697735479919
1.0759615419191395
1.0756696789536622
1.0758464612927503
1.0756694681931265
1.0757409273780023
1.0756693620872479
1.0756891522978325
1.0756693353933426
1.0756733404455163
1.0756693312220396
1.0756705073604023
1.0756693312220396
1.0756733404455163
1.0756693353933426
1.0756891522978325
1.0756693620872479
1.0757409273780023
1.0756694681931265
1.0758464612927503
1.0756696789536622
1.0759615419191395
1.0756697735479919
1.0760263781890744
1.075669453888382
1.0761191326725534
1.0756681652245408
1.0758581800212434
1.1324418589820637
1.133132668741579
1.1324438974111595
1.1329053814649965
1.1324440944394174
1.1327878962929718
1.1324438881922612
1.1326470452763009
1.132443591928715
1.1325249563617066
1.1324434480654249
1.1324657534360414
1.1324434122612492
1.1324478617762079
1.1324434067090337
1.1324446919536102
1.1324434067090337
1.1324478617762079
1.1324434122612492
1.1324657534360414
1.1324434480654249
1.1325249563617066
1.132443591928715
1.1326470452763009
1.1324438881922612
1.1327878962929718
1.1324440944394174
1.1329053814649965
1.1324438974111595
1.133132668741579
1.1324418589820637
1.1329642401978293
1.2218741962554718
1.2225927373492311
1.2218770227791758
1.2223370383360923
1.2218769644415632
1.2222343247197887
1.2218766268831009
1.2220942865623494
1.2218762443887932
1.2219635726956017
1.2218760654176954
1.2218996414349275
1.2218760219217182
1.2218806043434758
1.2218760153234045
1.2218773000220522
1.2218760153234045
1.2218806043434758
1.2218760219217182
1.2218996414349275
1.2218760654176954
1.2219635726956017
1.2218762443887932
1.2220942865623494
1.2218766268831009
1.2222343247197887
1.2218769644415632
1.2223370383360923
1.2218770227791758
1.2225927373492311
1.2218741962554718
1.2227001388253087
1.3468249592663666
1.3475482944535804
1.346828127964746
1.3472898579833048
1.3468277533139097
1.3472007376223771
1.3468273010166087
1.3470561913531205
1.3468268514400268
1.346916858268264
1.3468266500758559
1.3468501134400976
1.3468266030089875
1.3468309607952935
1.3468265961317458
1.3468277597668787
1.3468265961317458
1.3468309607952935
1.3468266030089875
1.3468501134400976
1.3468266500758559
1.346916858268264
1.3468268514400268
1.3470561913531205
1.3468273010166087
1.3472007376223771
1.3468277533139097
1.3472898579833048
1.346828127964746
1.3475482944535804
1.3468249592663666
1.3486451353339457
1.4966843116078945
1.4972905611027862
1.4966872032979943
1.4971185527681317
1.4966866709078892
1.4970629480659294
1.4966861902332502
1.4969173773841058
1.4966857240790099
1.496773290079227
1.496685524535067
1.4967071139587074
1.4966854804650329
1.4966892286853293
1.4966854743937708
1.4966864079958859
1.4966854743937708
1.4966892286853293
1.4966854804650329
1.4967071139587074
1.496685524535067
1.496773290079227
1.4966857240790099
1.4969173773841058
1.4966861902332502
1.4970629480659294
1.4966866709078892
1.4971185527681317
1.4966872032979943
1.4972905611027862
1.4966843116078945
1.5
1.6468348452738555
1.6473270479456152
1.6468369384533803
1.6472426298711851
1.6468367236799701
1.6472149121300261
1.6468363606982246
1.6470607734987364
1.6468359519452844
1.6469149590040011