# vtk DataFile Version 3.0
Euler density step 84
ASCII
DATASET STRUCTURED_POINTS
DIMENSIONS 32 32 32
ORIGIN 0 0 0
SPACING 0.3125 0.3125 0.3125
POINT_DATA 32768
SCALARS density double 1
LOOKUP_TABLE default
1.0008316841588356
1.0007359256045374
1.0008316910258066
1.0008274979349601
1.0008316891669098
1.0008315932974636
1.0008316891382671
1.0008316878353605
1.0008316891380291
1.0008316891265778
1.0008316891380278
1.0008316891379594
1.0008316891380278
1.0008316891380278
1.0008316891380278
1.0008316891380278
1.0008316891380278
1.0008316891380278
1.0008316891380278
1.0008316891379594
1.0008316891380278
1.0008316891265778
1.0008316891380291
1.0008316878353605
1.0008316891382671
1.0008315932974636
1.0008316891669098
1.0008274979349601
1.0008316910258066
1.0007359256045374
1.0008316841588356
1.0000453978687025
1.0000850890342925
1.0000851037292378
1.000085089034263
1.000085090569568
1.0000850890345074
1.0000850890831865
1.0000850890345145
1.0000850890353141
1.0000850890345148
1.000085089034523
1.0000850890345148
1.000085089034515
1.0000850890345148
1.0000850890345148
1.0000850890345148
1.0000850890345148
1.0000850890345148
1.0000850890345148
1.0000850890345148
1.000085089034515
1.0000850890345148
1.000085089034523
1.0000850890345148
1.0000850890353141
1.0000850890345145
1.0000850890831865
1.0000850890345074
1.000085090569568
1.000085089034263
1.0000851037292378
1.0000850890342925
1.0000848110417238
1.0002581161827377
1.0002498685675902
1.0002581167910336
1.0002578361569032
1.0002581167712485
1.0002581116919882
1.0002581167708464
1.0002581167150553
1.0002581167708422
1.0002581167704399
1.0002581167708422
1.0002581167708402
1.0002581167708422
1.0002581167708422
1.0002581167708422
1.0002581167708422
1.0002581167708422
1.0002581167708422
1.0002581167708422
1.0002581167708402
1.0002581167708422
1.0002581167704399
1.0002581167708422
1.0002581167150553
1.0002581167708464
1.0002581116919882
1.0002581167712485
1.0002578361569032
1.0002581167910336
1.0002498685675902
1.0002581161827377
1.0001584362191025
1.0002957499070944
1.000295799903725
1.0002957499070333
1.000295752222351
1.0002957499070366
1.0002957499625669
1.0002957499070371
1.0002957499078291
1.0002957499070371
1.0002957499070453
1.0002957499070371
1.0002957499070371
1.0002957499070371
1.0002957499070371
1.0002957499070371
1.0002957499070371
1.0002957499070371
1.0002957499070371
1.0002957499070371
1.0002957499070371
1.0002957499070371
1.0002957499070453
1.0002957499070371
1.0002957499078291
1.0002957499070371
1.0002957499625669
1.0002957499070366
1.000295752222351
1.0002957499070333
1.000295799903725
1.0002957499070944
1.0002959571135133
1.0005567550331611
1.0005565583189839
1.000556755041655
1.0005567513684726
1.0005567550415602
1.0005567550244594
1.0005567550415577
1.0005567550418946
1.0005567550415577
1.0005567550415637
1.0005567550415577
1.0005567550415577
1.0005567550415577
1.0005567550415577
1.0005567550415577
1.0005567550415577
1.0005567550415577
1.0005567550415577
1.0005567550415577
1.0005567550415577
1.0005567550415577
1.0005567550415637
1.0005567550415577
1.0005567550418946
1.0005567550415577
1.0005567550244594
1.0005567550415602
1.0005567513684726
1.000556755041655
1.0005565583189839
1.0005567550331611
1.0005527786369237
1.0010314822500539
1.0010316424206958
1.0010314822500803
1.0010314895038788
1.0010314822500759
1.0010314824222557
1.0010314822500759
1.0010314822525173
1.0010314822500759
1.0010314822500976
1.0010314822500759
1.0010314822500759
1.0010314822500759
1.0010314822500759
1.0010314822500759
1.0010314822500759
1.0010314822500759
1.0010314822500759
1.0010314822500759
1.0010314822500759
1.0010314822500759
1.0010314822500976
1.0010314822500759
1.0010314822525173
1.0010314822500759
1.0010314824222557
1.0010314822500759
1.0010314895038788
1.0010314822500803
1.0010316424206958
1.0010314822500539
1.001032231036755
1.0019254332991216
1.0019257229647662
1.0019254332992877
1.0019254464993756
1.0019254332992695
1.001925433613112
1.0019254332992691
1.0019254333037189
1.0019254332992691
1.0019254332993097
1.0019254332992691
1.0019254332992695
1.0019254332992691
1.0019254332992691
1.0019254332992691
1.0019254332992691
1.0019254332992691
1.0019254332992691
1.0019254332992691
1.0019254332992695
1.0019254332992691
1.0019254332993097
1.0019254332992691
1.0019254333037189
1.0019254332992691
1.001925433613112
1.0019254332992695
1.0019254464993756
1.0019254332992877
1.0019257229647662
1.0019254332991216
1.0019267346633276
1.0035909849411979
1.0035915292755582
1.0035909849415261
1.0035910094562042
1.0035909849414666
1.0035909855204914
1.003590984941465
1.0035909849496389
1.003590984941465
1.0035909849415399
1.003590984941465
1.0035909849414655
1.003590984941465
1.003590984941465
1.003590984941465
1.003590984941465
1.003590984941465
1.003590984941465
1.003590984941465
1.0035909849414655
1.003590984941465
1.0035909849415399
1.003590984941465
1.0035909849496389
1.003590984941465
1.0035909855204914
1.0035909849414666
1.0035910094562042
1.0035909849415261
1.0035915292755582
1.0035909849411979
1.0035936025814203
1.0066879684872114
1.0066889716039069
1.006687968488301
1.0066880135246545
1.0066879684880934
1.0066879695485313
1.0066879684880896
1.0066879685030121
1.0066879684880896
1.0066879684882255
1.0066879684880896
1.0066879684880903
1.0066879684880896
1.0066879684880896
1.0066879684880896
1.0066879684880896
1.0066879684880896
1.0066879684880896
1.0066879684880896
1.0066879684880903
1.0066879684880896
1.0066879684882255
1.0066879684880896
1.0066879685030121
1.0066879684880896
1.0066879695485313
1.0066879684880934
1.0066880135246545
1.006687968488301
1.0066889716039069
1.0066879684872114
1.006692850924285
1.0124225418029755
1.012424379112524
1.0124225418064576
1.0124226238849776
1.0124225418057611
1.0124225437285856
1.0124225418057493
1.0124225418326662
1.0124225418057491
1.0124225418059938
1.0124225418057491
1.0124225418057504
1.0124225418057491
1.0124225418057491
1.0124225418057491
1.0124225418057491
1.0124225418057491
1.0124225418057491
1.0124225418057491
1.0124225418057504
1.0124225418057491
1.0124225418059938
1.0124225418057491
1.0124225418326662
1.0124225418057493
1.0124225437285856
1.0124225418057611
1.0124226238849776
1.0124225418064576
1.012424379112524
1.0124225418029755
1.0124316508531859
1.0229603392545081
1.0229636650914835
1.0229603392651012
1.0229604865599693
1.022960339262825
1.0229603426825411
1.0229603392627844
1.0229603393102134
1.0229603392627844
1.0229603392632118
1.0229603392627844
1.0229603392627866
1.0229603392627844
1.0229603392627844
1.0229603392627844
1.0229603392627844
1.0229603392627844
1.0229603392627844
1.0229603392627844
1.0229603392627866
1.0229603392627844
1.0229603392632118
1.0229603392627844
1.0229603393102134
1.0229603392627844
1.0229603426825411
1.022960339262825
1.0229604865599693
1.0229603392651012
1.0229636650914835
1.0229603392545081
1.0229773699100257
1.0420556453723127
1.0420615525330332
1.042055645402288
1.0420559030402516
1.0420556453951413
1.0420556512813577
1.0420556453950196
1.0420556454753045
1.0420556453950185
1.0420556453957286
1.0420556453950185
1.0420556453950229
1.0420556453950185
1.0420556453950185
1.0420556453950185
1.0420556453950185
1.0420556453950185
1.0420556453950185
1.0420556453950185
1.0420556453950229
1.0420556453950185
1.0420556453957286
1.0420556453950185
1.0420556454753045
1.0420556453950196
1.0420556512813577
1.0420556453951413
1.0420559030402516
1.042055645402288
1.0420615525330332
1.0420556453723127
1.0420877279156189
1.0757969468594453
1.0758071418402697
1.075796946936
1.0757973800349068
1.0757969469149742
1.0757969565373524
1.0757969469146318
1.0757969470421034
1.0757969469146289
1.075796946915724
1.0757969469146289
1.0757969469146347
1.0757969469146289
1.0757969469146289
1.0757969469146289
1.0757969469146289
1.0757969469146289
1.0757969469146289
1.0757969469146289
1.0757969469146347
1.0757969469146289
1.075796946915724
1.0757969469146289
1.0757969470421034
1.0757969469146318
1.0757969565373524
1.0757969469149742
1.0757973800349068
1.075796946936
1.0758071418402697
1.0757969468594453
1.0758581800212434
1.1328462390582807
1.1328631067981809
1.1328462392287459
1.1328469256420111
1.1328462391727552
1.1328462537340789
1.1328462391718959
1.1328462393556908
1.1328462391718892
1.1328462391733922
1.1328462391718892
1.132846239171897
1.1328462391718892
1.1328462391718892
1.1328462391718892
1.1328462391718892
1.1328462391718892
1.1328462391718892
1.1328462391718892
1.132846239171897
1.1328462391718892
1.1328462391733922
1.1328462391718892
1.1328462393556908
1.1328462391718959
1.1328462537340789
1.1328462391727552
1.1328469256420111
1.1328462392287459
1.1328631067981809
1.1328462390582807
1.1329642401978293
1.2224770317059102
1.222503229023908
1.2224770320263234
1.2224780307239294
1.2224770318983911
1.2224770516444798
1.2224770318965954
1.2224770321282183
1.2224770318965803
1.2224770318983393
1.2224770318965803
1.2224770318965898
1.2224770318965803
1.2224770318965803
1.2224770318965803
1.2224770318965803
1.2224770318965803
1.2224770318965803
1.2224770318965803
1.2224770318965898
1.2224770318965803
1.2224770318983393
1.2224770318965803
1.2224770321282183
1.2224770318965954
1.2224770516444798
1.2224770318983911
1.2224780307239294
1.2224770320263234
1.222503229023908
1.2224770317059102
1.2227001388253087
1.3482564017513621
1.3482933039851535
1.3482564022427341
1.3482576907510657
1.3482564020104957
1.3482564252095568
1.3482564020075833
1.348256402254669
1.348256402007562
1.3482564020092613
1.348256402007562
1.3482564020075711
1.348256402007562
1.348256402007562
1.348256402007562
1.348256402007562
1.348256402007562
1.348256402007562
1.348256402007562
1.3482564020075711
1.348256402007562
1.3482564020092613
1.348256402007562
1.348256402254669
1.3482564020075833
1.3482564252095568
1.3482564020104957
1.3482576907510657
1.3482564022427341
1.3482933039851535
1.3482564017513621
1.3486451353339457
1.4994216659488879
1.499466784124847
1.4994216665373672
1.4994230923179999
1.4994216662281794
1.4994216893492851
1.4994216662247635
1.499421666446096
1.4994216662247422
1.4994216662261095
1.4994216662247422
1.4994216662247477
1.4994216662247422
1.4994216662247422
1.4994216662247422
1.4994216662247422
1.4994216662247422
1.4994216662247422
1.4994216662247422
1.4994216662247477
1.4994216662247422
1.4994216662261095
1.4994216662247422
1.499421666446096
1.4994216662247635
1.4994216893492851
1.4994216662281794
1.4994230923179999
1.4994216665373672
1.499466784124847
1.4994216659488879
1.5
1.6506576107475157
1.6507039440047118
1.6506576112851201
1.6506589434218044
1.6506576109957518
1.650657630593001
1.6506576109929088
1.650657611162917
1.6506576109928923
1.6506576109938442
1.6506576109928923
1.6506576109928965
1.6506576109928923
1.6506576109928923
1.6506576109928923
1.6506576109928923
1.6506576109928923
1.6506576109928923
1.6506576109928923
1.6506576109928965
1.6506576109928923
1.6506576109938442
1.6506576109928923
1.650657611162917
1.6506576109929088
1.650657630593001
1.6506576109957518
1.6506589434218044
1.6506576112851201
1.6507039440047118
1.6506576107475157
1.6513548646660543
1.7766248836827316
1.7766647192091214
1.7766248840665857
1.7766259452471831
1.7766248838732703
1.7766248983239008
1.7766248838715382
1.7766248839875725
1.7766248838715288
1.7766248838721297
1.7766248838715288
1.7766248838715313
1.7766248838715288
1.7766248838715288
1.7766248838715288
1.7766248838715288
1.7766248838715288
1.7766248838715288
1.7766248838715288
1.7766248838715313
1.7766248838715288
1.7766248838721297
1.7766248838715288
1.7766248839875725
1.7766248838715382
1.7766248983239008
1.7766248838732703
1.7766259452471831
1.7766248840665857
1.7766647192091214
1.7766248836827316
1.7772998611746911
1.8664963261573566
1.866525713145005
1.8664963263815209
1.8664970675593393
1.8664963262838441
1.8664963358451341
1.8664963262830234
1.8664963263558005
1.866496326283019
1.8664963262833754
1.866496326283019
1.8664963262830201
1.866496326283019
1.866496326283019
1.866496326283019
1.866496326283019
1.866496326283019
1.866496326283019
1.866496326283019
1.8664963262830201
1.866496326283019
1.8664963262833754
1.866496326283019
1.8664963263558005
1.8664963262830234
1.8664963358451341
1.8664963262838441
1.8664970675593393
1.8664963263815209
1.866525713145005
1.8664963261573566
1.8670357598021707
1.9237691567893727
1.9237884654199844
1.9237691568996418
1.9237696265375595
1.9237691568595001
1.9237691627102789
1.9237691568591748
1.9237691569022284
1.9237691568591733
1.9237691568593782
1.9237691568591733
1.9237691568591737
1.9237691568591733
1.9237691568591733
1.9237691568591733
1.9237691568591733
1.9237691568591733
1.9237691568591733
1.9237691568591733
1.9237691568591737
1.9237691568591733
1.9237691568593782
1.9237691568591733
1.9237691569022284
1.9237691568591748
1.9237691627102789
1.9237691568595001
1.9237696265375595
1.9237691568996418
1.9237884654199844
1.9237691567893727
1.9241418199787566
1.9576793179563268
1.9576910343024809
1.9576793180028647
1.9576795965317948
1.9576793179885288
1.9576793213853634
1.9576793179884151
1.9576793180129102
1.9576793179884147
1.9576793179885286
1.9576793179884147
1.9576793179884149
1.9576793179884147
1.9576793179884147
1.9576793179884147
1.9576793179884147
1.9576793179884147
1.9576793179884147
1.9576793179884147
1.9576793179884149
1.9576793179884147
1.9576793179885286
1.9576793179884147
1.9576793180129102
1.9576793179884151
1.9576793213853634
1.9576793179885288
1.9576795965317948
1.9576793180028647
1.9576910343024809
1.9576793179563268
1.9579122720843811
1.9768860419073544
1.9768927983138556
1.9768860419246483
1.9768862003323122
1.976886041919965
1.9768860438278333
1.9768860419199283
1.9768860419335279
1.9768860419199283
1.976886041919991
1.9768860419199283
1.9768860419199283
1.9768860419199283
1.9768860419199283
1.9768860419199283
1.9768860419199283
1.9768860419199283
1.9768860419199283
1.9768860419199283
1.9768860419199283
1.9768860419199283
1.976886041919991
1.9768860419199283
1.9768860419335279
1.9768860419199283
1.9768860438278333
1.976886041919965
1.9768862003323122
1.9768860419246483
1.9768927983138556
1.9768860419073544
1.9770226300899743
1.9874913315512852
1.987495110313265
1.9874913315571339
1.9874914194377362
1.9874913315556837
1.9874913326066319
1.9874913315556724
1.9874913315631146
1.9874913315556724
1.9874913315557061
1.9874913315556724
1.9874913315556724
1.9874913315556724
1.9874913315556724
1.9874913315556724
1.9874913315556724
1.9874913315556724
1.9874913315556724
1.9874913315556724
1.9874913315556724
1.9874913315556724
1.9874913315557061
1.9874913315556724
1.9874913315631146
1.9874913315556724
1.9874913326066319
1.9874913315556837
1.9874914194377362
1.9874913315571339
1.987495110313265
1.9874913315512852
1.9875683491468141
1.9932647264737937
1.993266803937533
1.9932647264756536
1.9932647745762129
1.9932647264752168
1.9932647270482609
1.9932647264752137
1.9932647264792576
1.9932647264752137
1.9932647264752326
1.9932647264752137
1.9932647264752139
1.9932647264752137
1.9932647264752137
1.9932647264752137
1.9932647264752137
1.9932647264752137
1.9932647264752137
1.9932647264752137
1.9932647264752139
1.9932647264752137
1.9932647264752326
1.9932647264752137
1.9932647264792576
1.9932647264752137
1.9932647270482609
1.9932647264752168
1.9932647745762129
1.9932647264756536
1.993266803937533
1.9932647264737937
1.993307149075715
1.99638331587963
1.9963844499713721
1.9963833158801969
1.9963833420711927
1.9963833158800675
1.9963833161914839
1.9963833158800661
1.9963833158822595
1.9963833158800661
1.9963833158800766
1.9963833158800661
1.9963833158800661
1.9963833158800661
1.9963833158800661
1.9963833158800661
1.9963833158800661
1.9963833158800661
1.9963833158800661
1.9963833158800661
1.9963833158800661
1.9963833158800661
1.9963833158800766
1.9963833158800661
1.9963833158822595
1.9963833158800661
1.9963833161914839
1.9963833158800675
1.9963833420711927
1.9963833158801969
1.9963844499713721
1.99638331587963
1.9964063974185799
1.9980622957070064
1.9980628613049141
1.9980622957079761
1.998062309220733
1.9980622957079319
1.9980622958716792
1.9980622957079319
1.9980622957090985
1.9980622957079319
1.9980622957079368
1.9980622957079319
1.9980622957079319
1.9980622957079319
1.9980622957079319
1.9980622957079319
1.9980622957079319
1.9980622957079319
1.9980622957079319
1.9980622957079319
1.9980622957079319
1.9980622957079319
1.9980622957079368
1.9980622957079319
1.9980622957090985
1.9980622957079319
1.9980622958716792
1.9980622957079319
1.998062309220733
1.9980622957079761
1.9980628613049141
1.9980622957070064
1.9980732653366724
1.9989610462253387
1.9989613874282419
1.9989610462253722
1.9989610540889042
1.9989610462253609
1.998961046318785
1.9989610462253609
1.998961046226019
1.9989610462253609
1.9989610462253644
1.9989610462253609
1.9989610462253609
1.9989610462253609
1.9989610462253609
1.9989610462253609
1.9989610462253609
1.9989610462253609
1.9989610462253609
1.9989610462253609
1.9989610462253609
1.9989610462253609
1.9989610462253644
1.9989610462253609
1.998961046226019
1.9989610462253609
1.998961046318785
1.9989610462253609
1.9989610540889042
1.9989610462253722
1.9989613874282419
1.9989610462253387
1.9989677689632452
1.9995053017498734
1.9995026018855255
1.9995053018553257
1.9995052534005258
1.9995053018530353
1.9995053013989958
1.9995053018530096
1.9995053018504501
1.9995053018530093
1.999505301853
1.9995053018530093
1.9995053018530093
1.9995053018530093
1.9995053018530093
1.9995053018530093
1.9995053018530093
1.9995053018530093
1.9995053018530093
1.9995053018530093
1.9995053018530093
1.9995053018530093
1.999505301853
1.9995053018530093
1.9995053018504501
1.9995053018530096
1.9995053013989958
1.9995053018530353
1.9995052534005258
1.9995053018553257
1.9995026018855255
1.9995053017498734
1.9994472213630763
1.9997018886466287
1.9997020226675182
1.9997018886465459
1.9997018918511853
1.9997018886466125
1.9997018886854234
1.9997018886466138
1.9997018886468898
1.9997018886466138
1.9997018886466154
1.9997018886466138
1.9997018886466138
1.9997018886466138
1.9997018886466138
1.9997018886466138
1.9997018886466138
1.9997018886466138
1.9997018886466138
1.9997018886466138
1.9997018886466138
1.9997018886466138
1.9997018886466154
1.9997018886466138
1.9997018886468898
1.9997018886466138
1.9997018886854234
1.9997018886466125
1.9997018918511853
1.9997018886465459
1.9997020226675182
1.9997018886466287
1.999704042886487
2.0008114176174554
2.0007512501040181
2.0008114182776393
2.0008099655287737
2.0008114178784093
2.0008114001129438
2.000811417875239
2.000811417747645
2.0008114178752243
2.0008114178746341
2.0008114178752243
2.0008114178752217
2.0008114178752243
2.0008114178752243
2.0008114178752243
2.0008114178752243
2.0008114178752243
2.0008114178752243
2.0008114178752243
2.0008114178752217
2.0008114178752243
2.0008114178746341
2.0008114178752243
2.000811417747645
2.000811417875239
2.0008114001129438
2.0008114178784093
2.0008099655287737
2.0008114182776393
2.0007512501040181
2.0008114176174554
1.9998415637808975
1.9999151889582765
1.9999151889582765
1.9999151889582765
1.9999151889582765
1.9999151889582765
1.9999151889582765
1.9999151889582765
1.9999151889582765
1.9999151889582765
1.9999151889582765
1.9999151889582765
1.9999151889582765
1.9999151889582765
1.9999151889582765
1.9999151889582765
1.9999151889582765
1.9999151889582765
1.9999151889582765
1.9999151889582765
1.9999151889582765
1.9999151889582765
1.9999151889582765
1.9999151889582765
1.9999151889582765
1.9999151889582765
1.9999151889582765
1.9999151889582765
1.9999151889582765
1.9999151889582765
1.9999151889582765
1.9999151889582765
1.9999151889582765
1.0024873260343121
1.00228961281373
1.0024873440086819
1.0024773025627143
1.0024873334484166
1.0024870725382551
1.0024873332467159
1.0024873292592877
1.002487333244624
1.002487333205403
1.0024873332446091
1.0024873332443447
1.0024873332446091
1.0024873332446076
1.0024873332446091
1.0024873332446091
1.0024873332446091
1.0024873332446076
1.0024873332446091
1.0024873332443447
1.0024873332446091
1.002487333205403
1.002487333244624
1.0024873292592877
1.0024873332467159
1.0024870725382551
1.0024873334484166
1.0024773025627143
1.0024873440086819
1.00228961281373
1.0024873260343121
1.0000453978687025
1.0000865579852067
1.000086407514013
1.0000865579879739
1.0000865515972988
1.0000865579866567
1.0000865578382125
1.0000865579866207
1.0000865579845266
1.0000865579866203
1.0000865579866021
1.0000865579866203
1.0000865579866203
1.0000865579866203
1.0000865579866203
1.0000865579866203
1.0000865579866203
1.0000865579866203
1.0000865579866203
1.0000865579866203
1.0000865579866203
1.0000865579866203
1.0000865579866021
1.0000865579866203
1.0000865579845266
1.0000865579866207
1.0000865578382125
1.0000865579866567
1.0000865515972988
1.0000865579879739
1.000086407514013
1.0000865579852067
1.0000848110417238
1.0003652911909027
1.0003455577714477
1.0003652942088421
1.0003645305099047
1.0003652940634553
1.0003652784913837
1.0003652940598358
1.0003652938680052
1.0003652940597958
1.0003652940582437
1.0003652940597956
1.0003652940597862
1.0003652940597956
1.0003652940597956
1.0003652940597956
1.0003652940597956
1.0003652940597956
1.0003652940597956
1.0003652940597956
1.0003652940597862
1.0003652940597956
1.0003652940582437
1.0003652940597958
1.0003652938680052
1.0003652940598358
1.0003652784913837
1.0003652940634553
1.0003645305099047
1.0003652942088421
1.0003455577714477
1.0003652911909027
1.0001584362191025
1.0002952948120809
1.0002953526049221
1.0002952948127528
1.0002952976747956
1.0002952948127135
1.0002952948843582
1.0002952948127126
1.0002952948137604
1.0002952948127126
1.0002952948127228
1.0002952948127126
1.0002952948127126
1.0002952948127126
1.0002952948127126
1.0002952948127126
1.0002952948127126
1.0002952948127126
1.0002952948127126
1.0002952948127126
1.0002952948127126
1.0002952948127126
1.0002952948127228
1.0002952948127126
1.0002952948137604
1.0002952948127126
1.0002952948843582
1.0002952948127135
1.0002952976747956
1.0002952948127528
1.0002953526049221
1.0002952948120809
1.0002959571135133
1.0005616942005808
1.0005610599878605
1.0005616942544033
1.0005616772442196
1.0005616942534474
1.0005616940232596
1.000561694253415
1.0005616942517181
1.0005616942534148
1.000561694253409
1.0005616942534148
1.0005616942534148
1.0005616942534148
1.0005616942534148
1.0005616942534148
1.0005616942534148
1.0005616942534148
1.0005616942534148
1.0005616942534148
1.0005616942534148
1.0005616942534148
1.000561694253409
1.0005616942534148
1.0005616942517181
1.000561694253415
1.0005616940232596
1.0005616942534474
1.0005616772442196
1.0005616942544033
1.0005610599878605
1.0005616942005808
1.0005527786369237
1.0010292180761666
1.0010294758773024
1.0010292180762497
1.0010292299752244
1.0010292180762328
1.0010292183616756
1.0010292180762326
1.0010292180802978
1.0010292180762326
1.001029218076271
1.0010292180762326
1.0010292180762328
1.0010292180762326
1.0010292180762326
1.0010292180762326
1.0010292180762326
1.0010292180762326
1.0010292180762326
1.0010292180762326
1.0010292180762328
1.0010292180762326
1.001029218076271
1.0010292180762326
1.0010292180802978
1.0010292180762326
1.0010292183616756
1.0010292180762328
1.0010292299752244
1.0010292180762497
1.0010294758773024
1.0010292180761666
1.001032231036755
1.0019213726641674
1.0019218372630445
1.0019213726649465
1.0019213944237531
1.0019213726648912
1.0019213731904524
1.0019213726648895
1.0019213726723997
1.0019213726648895
1.0019213726649592
1.0019213726648895
1.0019213726648899
1.0019213726648895
1.0019213726648895
1.0019213726648895
1.0019213726648895
1.0019213726648895
1.0019213726648895
1.0019213726648895
1.0019213726648899
1.0019213726648895
1.0019213726649592
1.0019213726648895
1.0019213726723997
1.0019213726648895
1.0019213731904524
1.0019213726648912
1.0019213944237531
1.0019213726649465
1.0019218372630445
1.0019213726641674
1.0019267346633276
1.0035831206282204
1.0035840111085417
1.0035831206290249
1.0035831616356496
1.0035831206288406
1.003583121610659
1.0035831206288381
1.0035831206427956
1.0035831206288381
1.0035831206289669
1.0035831206288381
1.0035831206288384
1.0035831206288381
1.0035831206288381
1.0035831206288381
1.0035831206288381
1.0035831206288381
1.0035831206288381
1.0035831206288381
1.0035831206288384
1.0035831206288381
1.0035831206289669
1.0035831206288381
1.0035831206427956
1.0035831206288381
1.003583121610659
1.0035831206288406
1.0035831616356496
1.0035831206290249
1.0035840111085417
1.0035831206282204
1.0035936025814203
1.0066734223192253
1.0066750633875481
1.0066734223218454
1.0066734977513094
1.0066734223212221
1.0066734241233586
1.0066734223212108
1.0066734223467713
1.0066734223212108
1.0066734223214455
1.0066734223212108
1.0066734223212122
1.0066734223212108
1.0066734223212108
1.0066734223212108
1.0066734223212108
1.0066734223212108
1.0066734223212108
1.0066734223212108
1.0066734223212122
1.0066734223212108
1.0066734223214455
1.0066734223212108
1.0066734223467713
1.0066734223212108
1.0066734241233586
1.0066734223212221
1.0066734977513094
1.0066734223218454
1.0066750633875481
1.0066734223192253
1.006692850924285
1.0123958257364274
1.0123988209168724
1.0123958257445669
1.0123959628839867
1.0123958257424919
1.0123958290051245
1.012395825742455
1.0123958257885235
1.0123958257424546
1.0123958257428762
1.0123958257424546
1.0123958257424575
1.0123958257424546
1.0123958257424546
1.0123958257424546
1.0123958257424546
1.0123958257424546
1.0123958257424546
1.0123958257424546
1.0123958257424575
1.0123958257424546
1.0123958257428762
1.0123958257424546
1.0123958257885235
1.012395825742455
1.0123958290051245
1.0123958257424919
1.0123959628839867
1.0123958257445669
1.0123988209168724
1.0123958257364274
1.0124316508531859
1.0229118934503567
1.0229172711768009
1.0229118934740489
1.0229121379149972
1.0229118934673742
1.0229118992364827
1.0229118934672592
1.0229118935480268
1.0229118934672585
1.0229118934679897
1.0229118934672585
1.022911893467263
1.0229118934672585
1.0229118934672585
1.0229118934672585
1.0229118934672585
1.0229118934672585
1.0229118934672585
1.0229118934672585
1.022911893467263
1.0229118934672585
1.0229118934679897
1.0229118934672585
1.0229118935480268
1.0229118934672592
1.0229118992364827
1.0229118934673742
1.0229121379149972
1.0229118934740489
1.0229172711768009
1.0229118934503567
1.0229773699100257
1.0419696085267418
1.0419790212459388
1.0419696085894881
1.0419700306453918
1.041969608569173
1.0419696183837499
1.0419696085688326
1.0419696087041053
1.0419696085688284
1.041969608570033
1.0419696085688284
1.0419696085688368
1.0419696085688284
1.0419696085688284
1.0419696085688284
1.0419696085688284
1.0419696085688284
1.0419696085688284
1.0419696085688284
1.0419696085688368
1.0419696085688284
1.041969608570033
1.0419696085688284
1.0419696087041053
1.0419696085688326
1.0419696183837499
1.041969608569173
1.0419700306453918
1.0419696085894881
1.0419790212459388
1.0419696085267418
1.0420877279156189
1.0756493017801694
1.0756651602120384
1.0756493019264797
1.0756499958055628
1.07564930186968
1.0756493175829409
1.0756493018687603
1.0756493020793789
1.0756493018687521
1.0756493018705746
1.0756493018687521
1.075649301868763
1.0756493018687521
1.0756493018687521
1.0756493018687521
1.0756493018687521
1.0756493018687521
1.0756493018687521
1.0756493018687521
1.075649301868763
1.0756493018687521
1.0756493018705746
1.0756493018687521
1.0756493020793789
1.0756493018687603
1.0756493175829409
1.07564930186968
1.0756499958055628
1.0756493019264797
1.0756651602120384
1.0756493017801694
1.0758581800212434
1.1326066869659832
1.132631961677347
1.1326066872575431
1.1326077479833494
1.1326066871179468
1.1326067100794794
1.132606687115806
1.1326066874094227
1.1326066871157887
1.1326066871182101
1.1326066871157885
1.1326066871158018
1.1326066871157885
1.1326066871157885
1.1326066871157885
1.1326066871157885
1.1326066871157885
1.1326066871157885
1.1326066871157885
1.1326066871158018
1.1326066871157885
1.1326066871182101
1.1326066871157887
1.1326066874094227
1.132606687115806
1.1326067100794794
1.1326066871179468
1.1326077479833494
1.1326066872575431
1.132631961677347
1.1326066869659832
1.1329642401978293
1.2221219520128523
1.2221590974331262
1.2221219525004556
1.2221234123949245
1.2221219522174194
1.2221219816773319
1.2221219522134181
1.2221219525637856
1.2221219522133864
1.2221219522160709
1.2221219522133864
1.222121952213401
1.2221219522133864
1.2221219522133864
1.2221219522133864
1.2221219522133864
1.2221219522133864
1.2221219522133864
1.2221219522133864
1.222121952213401
1.2221219522133864
1.2221219522160709
1.2221219522133864
1.2221219525637856
1.2221219522134181
1.2221219816773319
1.2221219522174194
1.2221234123949245
1.2221219525004556
1.2221590974331262
1.2221219520128523
1.2227001388253087
1.3477982682198995
1.3478467687895865
1.3477982688853316
1.3478000102050476
1.3477982684480301
1.3477983004054321
1.3477982684424712
1.3477982687874908
1.3477982684424319
1.3477982684448291
1.3477982684424319
1.3477982684424428
1.3477982684424319
1.3477982684424319
1.3477982684424319
1.3477982684424319
1.3477982684424319
1.3477982684424319
1.3477982684424319
1.3477982684424428
1.3477982684424319
1.3477982684448291
1.3477982684424319
1.3477982687874908
1.3477982684424712
1.3477983004054321
1.3477982684480301
1.3478000102050476
1.3477982688853316
1.3478467687895865
1.3477982682198995
1.3486451353339457
1.4989326021167959
1.4989866955180833
1.4989326028256134
1.4989343528683146
1.4989326023430025
1.4989326311946209
1.4989326023375524
1.4989326026170988
1.4989326023375171
1.49893260233926
1.4989326023375169
1.4989326023375242
1.4989326023375169
1.4989326023375169
1.4989326023375169
1.4989326023375169
1.4989326023375169
1.4989326023375169
1.4989326023375169
1.4989326023375242
1.4989326023375169
1.49893260233926
1.4989326023375171
1.4989326026170988
1.4989326023375524
1.4989326311946209
1.4989326023430025
1.4989343528683146
1.4989326028256134
1.4989866955180833
1.4989326021167959
1.5
1.6502380049263856
1.6502885837093493
1.65023800551101
1.650239487721908
1.6502380051351646
1.6502380272374246
1.6502380051313532
1.6502380053250243
1.6502380051313308
1.650238005132423