# vtk DataFile Version 3.0
Euler density step 176
ASCII
DATASET STRUCTURED_POINTS
DIMENSIONS 32 32 32
ORIGIN 0 0 0
SPACING 0.3125 0.3125 0.3125
POINT_DATA 32768
SCALARS density double 1
LOOKUP_TABLE default
1.0028959707205429
1.0017752269218581
1.0028968457565677
1.0026871789353569
1.0028966126520467
1.0028744058629806
1.0028965851389082
1.0028951313173748
1.0028965839582589
1.0028965204989129
1.0028965839296069
1.002896581975016
1.002896583929191
1.0028965838848642
1.0028965839291879
1.0028965839276611
1.0028965839291879
1.0028965838848642
1.002896583929191
1.002896581975016
1.0028965839296069
1.0028965204989129
1.0028965839582589
1.0028951313173748
1.0028965851389082
1.0028744058629806
1.0028966126520467
1.0026871789353569
1.0028968457565677
1.0017752269218581
1.0028959707205429
1.0000453978687025
1.000087856837673
1.0000876711289375
1.0000878565398901
1.0000879197310542
1.0000878565838907
1.0000878714782369
1.0000878565946678
1.0000878580267372
1.0000878565953113
1.0000878566759197
1.0000878565953306
1.000087856598344
1.0000878565953308
1.0000878565954119
1.0000878565953308
1.0000878565953346
1.0000878565953308
1.0000878565954119
1.0000878565953308
1.000087856598344
1.0000878565953306
1.0000878566759197
1.0000878565953113
1.0000878580267372
1.0000878565946678
1.0000878714782369
1.0000878565838907
1.0000879197310542
1.0000878565398901
1.0000876711289375
1.000087856837673
1.0000848110417238
1.0014597416539688
1.0010675407627749
1.0014599111143183
1.0013996429194238
1.0014598978707896
1.0014546345946536
1.0014598959630976
1.0014596067827672
1.0014598958880054
1.0014598851204068
1.0014598958865348
1.0014598955998972
1.0014598958865253
1.0014598958808494
1.0014598958865253
1.0014598958863525
1.0014598958865253
1.0014598958808494
1.0014598958865253
1.0014598955998972
1.0014598958865348
1.0014598851204068
1.0014598958880054
1.0014596067827672
1.0014598959630976
1.0014546345946536
1.0014598978707896
1.0013996429194238
1.0014599111143183
1.0010675407627749
1.0014597416539688
1.0001584362191025
1.0002948905944782
1.0002956604167084
1.0002948905991158
1.000295055845885
1.000294890598231
1.0002949094624998
1.0002948905986773
1.0002948919009063
1.0002948905987135
1.0002948906583442
1.0002948905987148
1.0002948906006464
1.0002948905987148
1.0002948905987619
1.0002948905987148
1.0002948905987159
1.0002948905987148
1.0002948905987619
1.0002948905987148
1.0002948906006464
1.0002948905987148
1.0002948906583442
1.0002948905987135
1.0002948919009063
1.0002948905986773
1.0002949094624998
1.000294890598231
1.000295055845885
1.0002948905991158
1.0002956604167084
1.0002948905944782
1.0002959571135133
1.0007977983887679
1.0007366899230155
1.0007978105253963
1.0007902324411748
1.0007978104126882
1.0007972705007218
1.0007978103633888
1.0007977858579686
1.0007978103616706
1.0007978096026646
1.0007978103616557
1.000797810344856
1.0007978103616564
1.0007978103613835
1.0007978103616564
1.0007978103616499
1.0007978103616564
1.0007978103613835
1.0007978103616564
1.000797810344856
1.0007978103616557
1.0007978096026646
1.0007978103616706
1.0007977858579686
1.0007978103633888
1.0007972705007218
1.0007978104126882
1.0007902324411748
1.0007978105253963
1.0007366899230155
1.0007977983887679
1.0005527786369237
1.0010245720517155
1.0010277616142231
1.0010245720602773
1.0010251186399595
1.0010245720591793
1.0010246269331471
1.0010245720590403
1.0010245755844354
1.0010245720590334
1.0010245722141609
1.0010245720590334
1.0010245720639521
1.0010245720590334
1.0010245720591504
1.0010245720590334
1.0010245720590383
1.0010245720590334
1.0010245720591504
1.0010245720590334
1.0010245720639521
1.0010245720590334
1.0010245722141609
1.0010245720590334
1.0010245755844354
1.0010245720590403
1.0010246269331471
1.0010245720591793
1.0010251186399595
1.0010245720602773
1.0010277616142231
1.0010245720517155
1.001032231036755
1.0019386960892682
1.0019389954263784
1.0019386965771118
1.0019391140817449
1.0019386965836155
1.0019387609221038
1.0019386965826937
1.0019387015680585
1.001938696582664
1.0019386968244477
1.001938696582664
1.0019386965907633
1.001938696582664
1.0019386965828629
1.001938696582664
1.001938696582672
1.001938696582664
1.0019386965828629
1.001938696582664
1.0019386965907633
1.001938696582664
1.0019386968244477
1.001938696582664
1.0019387015680585
1.0019386965826937
1.0019387609221038
1.0019386965836155
1.0019391140817449
1.0019386965771118
1.0019389954263784
1.0019386960892682
1.0019267346633276
1.0035679264902202
1.0035785711555061
1.003567926605351
1.0035697411803934
1.0035679265937714
1.0035681080903658
1.0035679265919775
1.0035679382151721
1.0035679265918893
1.0035679271017588
1.0035679265918878
1.0035679266080031
1.0035679265918878
1.0035679265922695
1.0035679265918878
1.0035679265919009
1.0035679265918878
1.0035679265922695
1.0035679265918878
1.0035679266080031
1.0035679265918878
1.0035679271017588
1.0035679265918893
1.0035679382151721
1.0035679265919775
1.0035681080903658
1.0035679265937714
1.0035697411803934
1.003567926605351
1.0035785711555061
1.0035679264902202
1.0035936025814203
1.006648801360613
1.0066676356917745
1.0066488017245276
1.0066520421581746
1.0066488016857915
1.0066491271737577
1.0066488016799393
1.0066488225511356
1.0066488016796591
1.0066488025948637
1.0066488016796509
1.0066488017085409
1.0066488016796509
1.0066488016803321
1.0066488016796509
1.0066488016796751
1.0066488016796509
1.0066488016803321
1.0066488016796509
1.0066488017085409
1.0066488016796509
1.0066488025948637
1.0066488016796591
1.0066488225511356
1.0066488016799393
1.0066491271737577
1.0066488016857915
1.0066520421581746
1.0066488017245276
1.0066676356917745
1.006648801360613
1.006692850924285
1.0123518492387222
1.0123856637870265
1.0123518502788804
1.0123576304163744
1.0123518501481792
1.0123524283027714
1.012351850129551
1.0123518870697248
1.0123518501286617
1.0123518517426804
1.0123518501286337
1.0123518501793898
1.0123518501286333
1.0123518501298292
1.0123518501286333
1.0123518501286781
1.0123518501286333
1.0123518501298292
1.0123518501286333
1.0123518501793898
1.0123518501286337
1.0123518517426804
1.0123518501286617
1.0123518870697248
1.012351850129551
1.0123524283027714
1.0123518501481792
1.0123576304163744
1.0123518502788804
1.0123856637870265
1.0123518492387222
1.0124316508531859
1.0228414232372534
1.0228997737306065
1.0228414261211101
1.0228513985478438
1.0228414257005691
1.0228424210585694
1.022841425643888
1.0228414889896271
1.0228414256412204
1.0228414283943235
1.0228414256411416
1.0228414257271752
1.02284142564114
1.0228414256431515
1.02284142564114
1.0228414256412122
1.02284142564114
1.0228414256431515
1.02284142564114
1.0228414257271752
1.0228414256411416
1.0228414283943235
1.0228414256412204
1.0228414889896271
1.022841425643888
1.0228424210585694
1.0228414257005691
1.0228513985478438
1.0228414261211101
1.0228997737306065
1.0228414232372534
1.0229773699100257
1.0418610105243924
1.0419588925238998
1.0418610179911574
1.0418776803323062
1.0418610166996649
1.0418626692066293
1.0418610165367415
1.0418611207820287
1.0418610165292208
1.0418610210117309
1.041861016529001
1.0418610166673934
1.0418610165289968
1.0418610165321898
1.0418610165289963
1.0418610165291098
1.0418610165289963
1.0418610165321898
1.0418610165289968
1.0418610166673934
1.041861016529001
1.0418610210117309
1.0418610165292208
1.0418611207820287
1.0418610165367415
1.0418626692066293
1.0418610166996649
1.0418776803323062
1.0418610179911574
1.0419588925238998
1.0418610105243924
1.0420877279156189
1.0754858572145143
1.0756446473820105
1.075485875026291
1.0755126385368243
1.075485871299158
1.0754884897890293
1.0754858708639927
1.0754860332393554
1.0754858708444641
1.075485877688906
1.0754858708439006
1.075485871050611
1.0754858708438895
1.0754858708485449
1.075485870843889
1.0754858708440505
1.075485870843889
1.0754858708485449
1.0754858708438895
1.075485871050611
1.0754858708439006
1.075485877688906
1.0754858708444641
1.0754860332393554
1.0754858708639927
1.0754884897890293
1.075485871299158
1.0755126385368243
1.075485875026291
1.0756446473820105
1.0754858572145143
1.0758581800212434
1.1323550171111927
1.1326028710513609
1.1323550555152402
1.1323960747113053
1.1323550456155467
1.1323589620623948
1.1323550445587456
1.1323552802377532
1.1323550445131656
1.132355054111527
1.1323550445118928
1.1323550447910191
1.1323550445118666
1.1323550445179027
1.1323550445118664
1.1323550445120665
1.1323550445118664
1.1323550445179027
1.1323550445118666
1.1323550447910191
1.1323550445118928
1.132355054111527
1.1323550445131656
1.1323552802377532
1.1323550445587456
1.1323589620623948
1.1323550456155467
1.1323960747113053
1.1323550555152402
1.1326028710513609
1.1323550171111927
1.1329642401978293
1.2217058280578379
1.2220749194170579
1.2217059007064466
1.2217653272337881
1.2217058771557823
1.2217113336819907
1.2217058748862049
1.2217061877434783
1.2217058747936846
1.2217058868514556
1.221705874791214
1.2217058751213874
1.2217058747911649
1.2217058747978646
1.2217058747911642
1.2217058747913723
1.2217058747911642
1.2217058747978646
1.2217058747911649
1.2217058751213874
1.221705874791214
1.2217058868514556
1.2217058747936846
1.2217061877434783
1.2217058748862049
1.2217113336819907
1.2217058771557823
1.2217653272337881
1.2217059007064466
1.2220749194170579
1.2217058280578379
1.2227001388253087
1.3470646549034104
1.3475816933758584
1.3470647723368594
1.3471447895433053
1.3470647244110365
1.3470716555883344
1.3470647203117077
1.3470650905706791
1.3470647201578378
1.347064733345668
1.3470647201540307
1.3470647204859589
1.3470647201539618
1.3470647201601302
1.3470647201539609
1.3470647201541344
1.3470647201539609
1.3470647201601302
1.3470647201539618
1.3470647204859589
1.3470647201540307
1.347064733345668
1.3470647201578378
1.3470650905706791
1.3470647203117077
1.3470716555883344
1.3470647244110365
1.3471447895433053
1.3470647723368594
1.3475816933758584
1.3470646549034104
1.3486451353339457
1.4976861783881312
1.4983474896010984
1.4976863352565943
1.4977830993931234
1.4976862589855646
1.4976940209775182
1.4976862532826152
1.4976866329363945
1.497686253090341
1.4976862653926823
1.4976862530860366
1.4976862533666666
1.4976862530859651
1.4976862530906778
1.497686253085964
1.4976862530860853
1.497686253085964
1.4976862530906778
1.4976862530859651
1.4976862533666666
1.4976862530860366
1.4976862653926823
1.497686253090341
1.4976866329363945
1.4976862532826152
1.4976940209775182
1.4976862589855646
1.4977830993931234
1.4976863352565943
1.4983474896010984
1.4976861783881312
1.5
1.6484362824508438
1.6491761957864761
1.6484364475845406
1.6485375226568866
1.6484363606790491
1.6484438167877342
1.6484363549751708
1.6484366881663148
1.6484363548029679
1.6484363646362037
1.6484363547994858
1.648436355003438
1.6484363547994323
1.6484363548025438
1.6484363547994312
1.6484363547995045
1.6484363547994312
1.6484363548025438
1.6484363547994323
1.648436355003438
1.6484363547994858
1.6484363646362037
1.6484363548029679
1.6484366881663148
1.6484363549751708
1.6484438167877342
1.6484363606790491
1.6485375226568866
1.6484364475845406
1.6491761957864761
1.6484362824508438
1.6513548646660543
1.7742420573735598
1.7749480853294892
1.7742421931676993
1.7743321204267786
1.7742421234304406
1.7742482673780271
1.7742421193117115
1.7742423731788219
1.7742421191983124
1.7742421261236898
1.774242119196205
1.7742421193289775
1.774242119196175
1.774242119198046
1.7742421191961746
1.774242119196215
1.7742421191961746
1.774242119198046
1.774242119196175
1.7742421193289775
1.774242119196205
1.7742421261236898
1.7742421191983124
1.7742423731788219
1.7742421193117115
1.7742482673780271
1.7742421234304406
1.7743321204267786
1.7742421931676993
1.7749480853294892
1.7742420573735598
1.7772998611746911
1.8643566803712424
1.8649353670785598
1.8643567708474698
1.8644260282923077
1.8643567293917911
1.8643611752769937
1.8643567271186867
1.86435690003497
1.8643567270601842
1.8643567315071796
1.8643567270591603
1.8643567271396286
1.8643567270591481
1.8643567270602202
1.8643567270591479
1.8643567270591688
1.8643567270591479
1.8643567270602202
1.8643567270591481
1.8643567271396286
1.8643567270591603
1.8643567315071796
1.8643567270601842
1.86435690003497
1.8643567271186867
1.8643611752769937
1.8643567293917911
1.8644260282923077
1.8643567708474698
1.8649353670785598
1.8643566803712424
1.8670357598021707
1.9221151793799955
1.9225334342930711
1.922115229874118
1.9221628109759517
1.9221152102596801
1.9221181245449999
1.9221152092345002
1.9221153177726977
1.9221152092093106
1.9221152118890812
1.9221152092088887
1.9221152092555183
1.9221152092088833
1.9221152092094804
1.9221152092088833
1.9221152092088947
1.9221152092088833
1.9221152092094804
1.9221152092088833
1.9221152092555183
1.9221152092088887
1.9221152118890812
1.9221152092093106
1.9221153177726977
1.9221152092345002
1.9221181245449999
1.9221152102596801
1.9221628109759517
1.922115229874118
1.9225334342930711
1.9221151793799955
1.9241418199787566
1.9565397473176629
1.9568143701965206
1.9565397713967356
1.9565698284132407
1.9565397635268493
1.9565415437975635
1.9565397631272496
1.9565398275057535
1.9565397631177275
1.9565397646653295
1.9565397631175718
1.9565397631438408
1.9565397631175698
1.9565397631179002
1.9565397631175698
1.9565397631175765
1.9565397631175698
1.9565397631179002
1.9565397631175698
1.9565397631438408
1.9565397631175718
1.9565397646653295
1.9565397631177275
1.9565398275057535
1.9565397631272496
1.9565415437975635
1.9565397635268493
1.9565698284132407
1.9565397713967356
1.9568143701965206
1.9565397473176629
1.9579122720843811
1.9761644575148505
1.976332629676014
1.9761644675500523
1.9761823690543092
1.9761644647379573
1.9761655010899553
1.976164464597467
1.9761645013615023
1.9761644645941838
1.9761644654632569
1.9761644645941325
1.9761644646086629
1.9761644645941316
1.9761644645943111
1.9761644645941316
1.9761644645941348
1.9761644645941316
1.9761644645943111
1.9761644645941316
1.9761644646086629
1.9761644645941325
1.9761644654632569
1.9761644645941838
1.9761645013615023
1.976164464597467
1.9761655010899553
1.9761644647379573
1.9761823690543092
1.9761644675500523
1.976332629676014
1.9761644575148505
1.9770226300899743
1.9870603655831816
1.9871585536362286
1.9870603693370745
1.9870706210153448
1.987060368408341
1.9870609530210073
1.9870603683623305
1.9870603888514
1.9870603683612698
1.987060368840694
1.9870603683612527
1.9870603683691968
1.9870603683612527
1.987060368361349
1.9870603683612527
1.9870603683612542
1.9870603683612527
1.987060368361349
1.9870603683612527
1.9870603683691968
1.9870603683612527
1.987060368840694
1.9870603683612698
1.9870603888514
1.9870603683623305
1.9870609530210073
1.987060368408341
1.9870706210153448
1.9870603693370745
1.9871585536362286
1.9870603655831816
1.9875683491468141
1.9930253506336351
1.9930798740720708
1.9930253519610659
1.993031016739871
1.9930253516716043
1.9930256730172025
1.9930253516572107
1.9930253628636123
1.9930253516568803
1.9930253519179002
1.9930253516568752
1.9930253516611813
1.993025351656875
1.9930253516569278
1.993025351656875
1.9930253516568757
1.993025351656875
1.9930253516569278
1.993025351656875
1.9930253516611813
1.9930253516568752
1.9930253519179002
1.9930253516568803
1.9930253628636123
1.9930253516572107
1.9930256730172025
1.9930253516716043
1.993031016739871
1.9930253519610659
1.9930798740720708
1.9930253506336351
1.993307149075715
1.9962452235257142
1.996276081432923
1.9962452239441877
1.9962483782664715
1.9962452238555057
1.9962454009803019
1.9962452238511439
1.9962452299867404
1.9962452238510444
1.996245223993276
1.9962452238510437
1.9962452238533832
1.9962452238510437
1.9962452238510722
1.9962452238510437
1.996245223851044
1.9962452238510437
1.9962452238510722
1.9962452238510437
1.9962452238533832
1.9962452238510437
1.996245223993276
1.9962452238510444
1.9962452299867404
1.9962452238511439
1.9962454009803019
1.9962452238555057
1.9962483782664715
1.9962452239441877
1.996276081432923
1.9962452235257142
1.9964063974185799
1.9981101438600852
1.9981068762474343
1.9981101457963473
1.9981104032981749
1.9981101457248296
1.9981101827316556
1.9981101457184454
1.9981101475244352
1.998110145718266
1.9981101457684949
1.9981101457182631
1.9981101457191874
1.9981101457182631
1.9981101457182755
1.9981101457182631
1.9981101457182631
1.9981101457182631
1.9981101457182755
1.9981101457182631
1.9981101457191874
1.9981101457182631
1.9981101457684949
1.998110145718266
1.9981101475244352
1.9981101457184454
1.9981101827316556
1.9981101457248296
1.9981104032981749
1.9981101457963473
1.9981068762474343
1.9981101438600852
1.9980732653366724
1.9989183459206432
1.9989280841696579
1.9989183459340638
1.9989193334398476
1.9989183459298574
1.9989184009697902
1.9989183459297997
1.9989183478243135
1.9989183459298012
1.9989183459734872
1.9989183459298012
1.9989183459305158
1.9989183459298012
1.9989183459298094
1.9989183459298012
1.9989183459298014
1.9989183459298012
1.9989183459298094
1.9989183459298012
1.9989183459305158
1.9989183459298012
1.9989183459734872
1.9989183459298012
1.9989183478243135
1.9989183459297997
1.9989184009697902
1.9989183459298574
1.9989193334398476
1.9989183459340638
1.9989280841696579
1.9989183459206432
1.9989677689632452
2.0004712079002114
2.0002605604703052
2.0004712509072835
2.000452050669002
2.0004712465289787
2.0004702978454589
2.0004712462553287
2.0004712173043289
2.0004712462481931
2.0004712456540341
2.0004712462480709
2.0004712462393752
2.0004712462480696
2.0004712462479755
2.0004712462480696
2.0004712462480683
2.0004712462480696
2.0004712462479755
2.0004712462480696
2.0004712462393752
2.0004712462480709
2.0004712456540341
2.0004712462481931
2.0004712173043289
2.0004712462553287
2.0004702978454589
2.0004712465289787
2.000452050669002
2.0004712509072835
2.0002605604703052
2.0004712079002114
1.9994472213630763
1.9996885519645906
1.9996928994084522
1.9996885518151282
1.9996890684535826
1.9996885519135725
1.9996885837355469
1.9996885519207943
1.9996885530923836
1.999688551921021
1.9996885519493559
1.9996885519210257
1.9996885519215069
1.9996885519210257
1.9996885519210321
1.9996885519210257
1.9996885519210259
1.9996885519210257
1.9996885519210321
1.9996885519210257
1.9996885519215069
1.9996885519210257
1.9996885519493559
1.999688551921021
1.9996885530923836
1.9996885519207943
1.9996885837355469
1.9996885519135725
1.9996890684535826
1.9996885518151282
1.9996928994084522
1.9996885519645906
1.999704042886487
2.0035261262916966
2.0025827879013649
2.0035263431902139
2.0034147820952302
2.0035262163793979
2.0035192995092075
2.0035262098594582
2.0035259530165335
2.0035262096997175
2.0035262034343084
2.0035262096970672
2.0035262095899777
2.0035262096970348
2.0035262096956896
2.0035262096970348
2.0035262096970095
2.0035262096970348
2.0035262096956896
2.0035262096970348
2.0035262095899777
2.0035262096970672
2.0035262034343084
2.0035262096997175
2.0035259530165335
2.0035262098594582
2.0035192995092075
2.0035262163793979
2.0034147820952302
2.0035263431902139
2.0025827879013649
2.0035261262916966
1.9998415637808975
1.9999151889582765
1.9999151889582765
1.9999151889582765
1.9999151889582765
1.9999151889582765
1.9999151889582765
1.9999151889582765
1.9999151889582765
1.9999151889582765
1.9999151889582765
1.9999151889582765
1.9999151889582765
1.9999151889582765
1.9999151889582765
1.9999151889582765
1.9999151889582765
1.9999151889582765
1.9999151889582765
1.9999151889582765
1.9999151889582765
1.9999151889582765
1.9999151889582765
1.9999151889582765
1.9999151889582765
1.9999151889582765
1.9999151889582765
1.9999151889582765
1.9999151889582765
1.9999151889582765
1.9999151889582765
1.9999151889582765
1.9999151889582765
1.0044402715846901
1.0031087952180531
1.0044419223733265
1.0041256077400469
1.0044411349964149
1.0043997594717335
1.0044410198860181
1.0044377734402428
1.0044410129756904
1.0044408465568568
1.0044410127186874
1.0044410067740361
1.0044410127118457
1.004441012556569
1.0044410127117072
1.0044410127055645
1.0044410127117072
1.004441012556569
1.0044410127118457
1.0044410067740361
1.0044410127186874
1.0044408465568568
1.0044410129756904
1.0044377734402428
1.0044410198860181
1.0043997594717335
1.0044411349964149
1.0041256077400469
1.0044419223733265
1.0031087952180531
1.0044402715846901
1.0000453978687025
1.0000907633131522
1.0000892565215453
1.0000907630860556
1.0000905656941559
1.0000907630318387
1.0000907493993927
1.0000907630476399
1.0000907626021402
1.0000907630493676
1.0000907630496079
1.0000907630494518
1.0000907630500924
1.0000907630494542
1.0000907630494842
1.0000907630494542
1.0000907630494549
1.0000907630494542
1.0000907630494842
1.0000907630494542
1.0000907630500924
1.0000907630494518
1.0000907630496079
1.0000907630493676
1.0000907626021402
1.0000907630476399
1.0000907493993927
1.0000907630318387
1.0000905656941559
1.0000907630860556
1.0000892565215453
1.0000907633131522
1.0000848110417238
1.0017534949834634
1.0011719761070021
1.0017539171653123
1.0016438340233345
1.0017538512827928
1.0017422799083713
1.0017538397621664
1.001753089899291
1.0017538390788518
1.0017538065771436
1.0017538390542351
1.0017538380544893
1.0017538390536105
1.0017538390308023
1.0017538390535978
1.0017538390528011
1.0017538390535978
1.0017538390308023
1.0017538390536105
1.0017538380544893
1.0017538390542351
1.0017538065771436
1.0017538390788518
1.001753089899291
1.0017538397621664
1.0017422799083713
1.0017538512827928
1.0016438340233345
1.0017539171653123
1.0011719761070021
1.0017534949834634
1.0001584362191025
1.0002968809573241
1.0002969306644398
1.0002968813346762
1.0002969573462588
1.000296881285093
1.0002968952533262
1.0002968812796249
1.0002968825177252
1.0002968812793998
1.0002968813460478
1.000296881279394
1.000296881281818
1.000296881279394
1.0002968812794575
1.000296881279394
1.0002968812793964
1.000296881279394
1.0002968812794575
1.000296881279394
1.000296881281818
1.000296881279394
1.0002968813460478
1.0002968812793998
1.0002968825177252
1.0002968812796249
1.0002968952533262
1.000296881285093
1.0002969573462588
1.0002968813346762
1.0002969306644398
1.0002968809573241
1.0002959571135133
1.0009350778077555
1.000821738594057
1.0009351176233361
1.0009182696981871
1.0009351156885706
1.0009336917555296
1.0009351151751595
1.0009350390617739
1.0009351151434884
1.0009351123682595
1.0009351151423636
1.0009351150695098
1.0009351151423365
1.0009351151409041
1.0009351151423362
1.0009351151422918
1.0009351151423362
1.0009351151409041
1.0009351151423365
1.0009351150695098
1.0009351151423636
1.0009351123682595
1.0009351151434884
1.0009350390617739
1.0009351151751595
1.0009336917555296
1.0009351156885706
1.0009182696981871
1.0009351176233361
1.000821738594057
1.0009350778077555
1.0005527786369237
1.0010208984422981
1.0010251102341479
1.0010208984950999
1.0010217083676984
1.0010208984896158
1.0010209884138737
1.0010208984887721
1.0010209047484493
1.001020898488731
1.0010208987819824
1.0010208984887285
1.001020898498493
1.0010208984887285
1.0010208984889681
1.0010208984887285
1.0010208984887388
1.0010208984887285
1.0010208984889681
1.0010208984887285
1.001020898498493
1.0010208984887285
1.0010208987819824
1.001020898488731
1.0010209047484493
1.0010208984887721
1.0010209884138737
1.0010208984896158
1.0010217083676984
1.0010208984950999
1.0010251102341479
1.0010208984422981
1.001032231036755
1.0019548239272484
1.0019505483973896
1.0019548260575999
1.00195484907685
1.0019548260424294
1.001954887326501
1.0019548260266966
1.0019548327539296
1.0019548260256759
1.0019548264118716
1.0019548260256395
1.0019548260400026
1.0019548260256386
1.001954826026018
1.0019548260256386
1.0019548260256543
1.0019548260256386
1.001954826026018
1.0019548260256386
1.0019548260400026
1.0019548260256395
1.0019548264118716
1.0019548260256759
1.0019548327539296
1.0019548260266966
1.001954887326501
1.0019548260424294
1.00195484907685
1.0019548260575999
1.0019505483973896
1.0019548239272484
1.0019267346633276
1.0035540737827788
1.0035685363026676
1.0035540740518709
1.0035568285925547
1.0035540740094784
1.0035543779843896
1.0035540740029836
1.00355409507685
1.0035540740026336
1.0035540749869087
1.0035540740026223
1.0035540740353071
1.0035540740026219
1.0035540740034254
1.0035540740026219
1.0035540740026523
1.0035540740026219
1.0035540740034254
1.0035540740026219
1.0035540740353071
1.0035540740026223
1.0035540749869087
1.0035540740026336
1.00355409507685
1.0035540740029836
1.0035543779843896
1.0035540740094784
1.0035568285925547
1.0035540740518709
1.0035685363026676
1.0035540737827788
1.0035936025814203
1.0066269232390774
1.006651760441567
1.0066269240905426
1.0066317489598724
1.0066269239548986
1.0066274620297651
1.0066269239342123
1.0066269614270216
1.0066269239330992
1.0066269256879188
1.0066269239330614
1.0066269239913641
1.0066269239330607
1.0066269239344952
1.0066269239330607
1.0066269239331147
1.0066269239330607
1.0066269239344952
1.0066269239330607
1.0066269239913641
1.0066269239330614
1.0066269256879188
1.0066269239330992
1.0066269614270216
1.0066269239342123
1.0066274620297651
1.0066269239548986
1.0066317489598724
1.0066269240905426
1.006651760441567
1.0066269232390774
1.006692850924285
1.0123114601788248
1.0123557504412899
1.01231146234581
1.0123199866054227
1.0123114619117219
1.012312407987261
1.0123114618497888
1.0123115275464551
1.0123114618465106
1.0123114649115892
1.0123114618464022
1.0123114619479012
1.0123114618463989
1.0123114618488889
1.0123114618463989
1.0123114618464928
1.0123114618463989
1.0123114618488889
1.0123114618463989
1.0123114619479012
1.0123114618464022
1.0123114649115892
1.0123114618465106
1.0123115275464551
1.0123114618497888
1.012312407987261
1.0123114619117219
1.0123199866054227
1.01231146234581
1.0123557504412899
1.0123114601788248
1.0124316508531859
1.0227755759142827
1.0228497204676332
1.0227755814944823
1.0227899153026296
1.0227755801981153
1.0227771727412225
1.0227755800215661
1.0227756903934584
1.0227755800123615
1.0227755851411717
1.0227755800120601
1.0227755801809864
1.0227755800120526
1.0227755800161678
1.0227755800120526
1.022775580012206
1.0227755800120526
1.0227755800161678
1.0227755800120526
1.0227755801809864
1.0227755800120601
1.0227755851411717
1.0227755800123615
1.0227756903934584
1.0227755800215661
1.0227771727412225
1.0227755801981153
1.0227899153026296
1.0227755814944823
1.0228497204676332
1.0227755759142827
1.0229773699100257
1.0417559161415266
1.0418755932552279
1.0417559293551442
1.0417790703933167
1.0417559257306939
1.0417584872693548
1.0417559252637338
1.041756101486192
1.0417559252399047
1.0417559333478008
1.0417559252391377
1.0417559255030948
1.0417559252391178
1.0417559252454665
1.0417559252391178
1.0417559252393509
1.0417559252391178
1.0417559252454665
1.0417559252391178
1.0417559255030948
1.0417559252391377
1.0417559333478008
1.0417559252399047
1.041756101486192
1.0417559252637338
1.0417584872693548
1.0417559257306939
1.0417790703933167
1.0417559293551442
1.0418755932552279
1.0417559161415266
1.0420877279156189
1.0753219468713935
1.0755069284101564
1.0753219752125374
1.0753575147884011
1.075321965907353
1.0753258526038503
1.075321964784566
1.0753222276673067
1.0753219647290224
1.0753219765804825
1.075321964727272
1.0753219651044601
1.0753219647272316
1.0753219647360852
1.0753219647272312
1.0753219647275469
1.0753219647272312
1.0753219647360852
1.0753219647272316
1.0753219651044601
1.075321964727272
1.0753219765804825
1.0753219647290224
1.0753222276673067
1.075321964784566
1.0753258526038503
1.075321965907353
1.0753575147884011
1.0753219752125374
1.0755069284101564
1.0753219468713935
1.0758581800212434
1.1321077811896223
1.1323799204842788
1.1321078350080302
1.1321592827439158
1.1321078136055995
1.1321132990487424
1.1321078112148986
1.1321081703711104
1.1321078111017207
1.1321078267010793
1.1321078110982825
1.1321078115750158
1.1321078110982055
1.1321078111089269
1.1321078110982041
1.1321078110985709
1.1321078110982041
1.1321078111089269
1.1321078110982055
1.1321078115750158
1.1321078110982825
1.1321078267010793
1.1321078111017207
1.1321081703711104
1.1321078112148986
1.1321132990487424
1.1321078136055995
1.1321592827439158
1.1321078350080302
1.1323799204842788
1.1321077811896223
1.1329642401978293
1.2213611019904056
1.2217390784242579
1.2213611902170982
1.221430607943625
1.2213611475285384
1.2213682213569965
1.2213611431793772
1.2213615812791319
1.2213611429863129
1.2213611608716124
1.2213611429807838
1.2213611434924816
1.2213611429806683
1.2213611429914095
1.2213611429806657
1.2213611429810087
1.2213611429806657
1.2213611429914095
1.2213611429806683
1.2213611434924816
1.2213611429807838
1.2213611608716124
1.2213611429863129
1.2213615812791319
1.2213611431793772
1.2213682213569965
1.2213611475285384
1.221430607943625
1.2213611902170982
1.2217390784242579
1.2213611019904056
1.2227001388253087
1.3466598747788479
1.3471489861628636
1.3466599971646169
1.3467454246976838
1.3466599274888342
1.3466680252514693
1.3466599211499626
1.3466603826078478
1.3466599208934162
1.3466599381301845
1.3466599208866801
1.3466599213364796
1.3466599208865515
1.346659920895148
1.3466599208865502
1.3466599208867982
1.3466599208865502
1.346659920895148
1.3466599208865515
1.3466599213364796
1.3466599208866801
1.3466599381301845
1.3466599208934162
1.3466603826078478
1.3466599211499626
1.3466680252514693
1.3466599274888342
1.3467454246976838
1.3466599971646169
1.3471489861628636
1.3466598747788479
1.3486451353339457
1.4973620766694757
1.4979322553060606
1.4973622143984326
1.4974544229322586
1.4973621293359274
1.4973700728951183
1.4973621225271372
1.4973625312261467
1.4973621222804887
1.4973621360296179
1.4973621222746492
1.4973621225975005
1.4973621222745479
1.4973621222801003
1.4973621222745468
1.4973621222746931
1.4973621222745468
1.4973621222801003
1.4973621222745479
1.4973621225975005
1.4973621222746492
1.4973621360296179
1.4973621222804887
1.4973625312261467
1.4973621225271372
1.4973700728951183
1.4973621293359274
1.4974544229322586
1.4973622143984326
1.4979322553060606
1.4973620766694757
1.5
1.6483882579977351
1.6489623895171108
1.6483883792011702
1.6484730375640606
1.6483883060512392
1.6483948962196262
1.6483883008522702
1.6483886069364473
1.6483883006826403
1.6483883099839911