# vtk DataFile Version 3.0
Euler density step 554
ASCII
DATASET STRUCTURED_POINTS
DIMENSIONS 32 32 32
ORIGIN 0 0 0
SPACING 0.3125 0.3125 0.3125
POINT_DATA 32768
SCALARS density double 1
LOOKUP_TABLE default
1.008987843840103
1.0018246860440085
1.00902600084063
1.0036936434540555
1.0090398669556819
1.0051065405210315
1.0090412329342935
1.0062255193399743
1.0090388396018581
1.0073046470167057
1.0090333626484673
1.0082172386106261
1.0090289472013447
1.0087335392944878
1.0090272598498535
1.0088827474911706
1.0090272598498535
1.0087335392944878
1.0090289472013447
1.0082172386106261
1.0090333626484673
1.0073046470167057
1.0090388396018581
1.0062255193399743
1.0090412329342935
1.0051065405210315
1.0090398669556819
1.0036936434540555
1.00902600084063
1.0018246860440085
1.008987843840103
1.0000453978687025
0.99972254978873853
0.99998426731177259
0.99972236285658822
0.99988998399980122
0.99972230293962228
0.99981515572349922
0.99972231096645525
0.99976538689351602
0.99972232725645038
0.99973907631048819
0.99972234295468432
0.99972789418256736
0.99972235445776914
0.99972397744819386
0.99972235932105435
0.99972308298564283
0.99972235932105435
0.99972397744819386
0.99972235445776914
0.99972789418256736
0.99972234295468432
0.99973907631048819
0.99972232725645038
0.99976538689351602
0.99972231096645525
0.99981515572349922
0.99972230293962228
0.99988998399980122
0.99972236285658822
0.99998426731177259
0.99972254978873853
1.0000848110417238
1.0083087252518501
1.0019680905539572
1.0083315045795096
1.003472753790559
1.0083442803149107
1.0047282994483964
1.0083479379794091
1.0057628706794968
1.0083471540337383
1.0067884988557716
1.008342843963548
1.0076377392832292
1.0083394111159074
1.0080972584151122
1.0083381788888359
1.0082251389408561
1.0083381788888359
1.0080972584151122
1.0083394111159074
1.0076377392832292
1.008342843963548
1.0067884988557716
1.0083471540337383
1.0057628706794968
1.0083479379794091
1.0047282994483964
1.0083442803149107
1.003472753790559
1.0083315045795096
1.0019680905539572
1.0083087252518501
1.0001584362191025
0.99947127061092711
1.0000752281418082
0.99947131640786024
0.9998720641739165
0.99947133755463058
0.99970337480605653
0.99947134155208639
0.99958349345898423
0.99947133582044945
0.99951545900388217
0.99947134043501884
0.99948536881066163
0.9994713485329445
0.9994750584973503
0.99947135236711648
0.99947283365544992
0.99947135236711648
0.9994750584973503
0.9994713485329445
0.99948536881066163
0.99947134043501884
0.99951545900388217
0.99947133582044945
0.99958349345898423
0.99947134155208639
0.99970337480605653
0.99947133755463058
0.9998720641739165
0.99947131640786024
1.0000752281418082
0.99947127061092711
1.0002959571135133
1.0067608939806003
1.0017504504358967
1.0067723098109627
1.0028591589815476
1.006780937676832
1.0037754481070202
1.0067853502813897
1.0046245933293028
1.0067853788909427
1.005559085138316
1.0067824972480228
1.0062786472193042
1.006780507298177
1.0066254880133827
1.0067798877179841
1.0067138538908038
1.0067798877179841
1.0066254880133827
1.006780507298177
1.0062786472193042
1.0067824972480228
1.005559085138316
1.0067853788909427
1.0046245933293028
1.0067853502813897
1.0037754481070202
1.006780937676832
1.0028591589815476
1.0067723098109627
1.0017504504358967
1.0067608939806003
1.0005527786369237
0.99957343241672547
1.0006687442542352
0.99957371771027725
1.0003280338099947
0.99957396861807801
1.0000339096639133
0.99957405147507938
0.99980867929807737
0.99957402653422867
0.99966949716261566
0.99957399909510702
0.99960438213220615
0.99957399077128739
0.99958177438162277
0.99957398958657062
0.99957696153032383
0.99957398958657062
0.99958177438162277
0.99957399077128739
0.99960438213220615
0.99957399909510702
0.99966949716261566
0.99957402653422867
0.99980867929807737
0.99957405147507938
1.0000339096639133
0.99957396861807801
1.0003280338099947
0.99957371771027725
1.0006687442542352
0.99957343241672547
1.001032231036755
1.0062530353437351
1.0026573233173635
1.0062584228097307
1.0033635045351696
1.0062638661122898
1.0040187669889653
1.0062672856512929
1.0047878712213831
1.0062672640347581
1.0055435954750727
1.006265886998287
1.0060117661820211
1.0062651302943997
1.0061980796131407
1.0062649294920731
1.0062397203638256
1.0062649294920731
1.0061980796131407
1.0062651302943997
1.0060117661820211
1.006265886998287
1.0055435954750727
1.0062672640347581
1.0047878712213831
1.0062672856512929
1.0040187669889653
1.0062638661122898
1.0033635045351696
1.0062584228097307
1.0026573233173635
1.0062530353437351
1.0019267346633276
1.0014006221669085
1.0030910226882221
1.0014012999624256
1.0026080626179934
1.001401963412063
1.0021794223328608
1.0014022184129372
1.0018264288483285
1.0014021504789141
1.0015859416722073
1.0014020453845591
1.0014635198306601
1.0014020019520224
1.0014183589689194
1.0014019920799069
1.0014083974293362
1.0014019920799069
1.0014183589689194
1.0014020019520224
1.0014635198306601
1.0014020453845591
1.0015859416722073
1.0014021504789141
1.0018264288483285
1.0014022184129372
1.0021794223328608
1.001401963412063
1.0026080626179934
1.0014012999624256
1.0030910226882221
1.0014006221669085
1.0035936025814203
1.0093072080109473
1.0072236202385945
1.0093102824996831
1.0077379546914553
1.0093138810414612
1.0082751740033442
1.009315853991767
1.0087969032723112
1.0093158536330289
1.0091376157761824
1.0093153857190882
1.0092752782924046
1.0093151633836068
1.0093099627004687
1.0093151090415096
1.0093148390036228
1.0093151090415096
1.0093099627004687
1.0093151633836068
1.0092752782924046
1.0093153857190882
1.0091376157761824
1.0093158536330289
1.0087969032723112
1.009315853991767
1.0082751740033442
1.0093138810414612
1.0077379546914553
1.0093102824996831
1.0072236202385945
1.0093072080109473
1.006692850924285
1.0094782727610561
1.0118030741524231
1.0094798481721245
1.0111801313907087
1.0094812297373632
1.0106277786380162
1.009481726481297
1.0101483292415789
1.0094815194051305
1.0097893933492661
1.009481219811176
1.0095899798728525
1.009481088088372
1.009511381567161
1.0094810563992094
1.0094933181608037
1.0094810563992094
1.009511381567161
1.009481088088372
1.0095899798728525
1.009481219811176
1.0097893933492661
1.0094815194051305
1.0101483292415789
1.009481726481297
1.0106277786380162
1.0094812297373632
1.0111801313907087
1.0094798481721245
1.0118030741524231
1.0094782727610561
1.0124316508531859
1.0231161690352006
1.0231829586311403
1.0231192203445596
1.0233280899491888
1.0231219950071957
1.0234653413154482
1.0231231310704523
1.0234781664268264
1.0231229356328575
1.0233530378207651
1.023122488630487
1.0232217380163897
1.0231222763428616
1.0231536470643443
1.0231222227739787
1.0231358961971657
1.0231222227739787
1.0231536470643443
1.0231222763428616
1.0232217380163897
1.023122488630487
1.0233530378207651
1.0231229356328575
1.0234781664268264
1.0231231310704523
1.0234653413154482
1.0231219950071957
1.0233280899491888
1.0231192203445596
1.0231829586311403
1.0231161690352006
1.0229773699100257
1.0382040732521736
1.0412910989309703
1.0382079833277291
1.0404553149613447
1.0382105164656348
1.0397534139362019
1.0382111621058356
1.0391444263109113
1.0382105843665494
1.0386605396916648
1.0382098841024379
1.0383745658752253
1.0382095712071047
1.0382566963403796
1.0382094939781978
1.0382289034807004
1.0382094939781978
1.0382566963403796
1.0382095712071047
1.0383745658752253
1.0382098841024379
1.0386605396916648
1.0382105843665494
1.0391444263109113
1.0382111621058356
1.0397534139362019
1.0382105164656348
1.0404553149613447
1.0382079833277291
1.0412910989309703
1.0382040732521736
1.0420877279156189
1.0730487000839461
1.0754595230054704
1.0730551615257318
1.0749111807176723
1.0730585089214126
1.0744665299131761
1.0730591607123765
1.0740004273617385
1.0730583087018
1.0735437266389698
1.0730573349183639
1.0732418036469871
1.0730568982668358
1.0731106952408433
1.0730567899021606
1.0730791101697623
1.0730567899021606
1.0731106952408433
1.0730568982668358
1.0732418036469871
1.0730573349183639
1.0735437266389698
1.0730583087018
1.0740004273617385
1.0730591607123765
1.0744665299131761
1.0730585089214126
1.0749111807176723
1.0730551615257318
1.0754595230054704
1.0730487000839461
1.0758581800212434
1.1276651751634528
1.1318917118235967
1.1276761683546688
1.130622700980378
1.1276800233681925
1.129678788781483
1.1276801480156373
1.1289035781236147
1.1276786739144029
1.1282760318169911
1.1276772782176352
1.1278964445026296
1.1276766830229179
1.1277388364078871
1.1276765393030659
1.1277017735240187
1.1276765393030659
1.1277388364078871
1.1276766830229179
1.1278964445026296
1.1276772782176352
1.1282760318169911
1.1276786739144029
1.1289035781236147
1.1276801480156373
1.129678788781483
1.1276800233681925
1.130622700980378
1.1276761683546688
1.1318917118235967
1.1276651751634528
1.1329642401978293
1.2170815750536164
1.2216228718631417
1.2170994610730279
1.2202316559178592
1.2171033000731419
1.2192647112180603
1.2171026166682033
1.2184554390233813
1.2171004182691887
1.2177662120988537
1.2170985590820411
1.2173410404966432
1.2170977994479204
1.2171652553211967
1.217097621813271
1.2171244018294134
1.217097621813271
1.2171652553211967
1.2170977994479204
1.2173410404966432
1.2170985590820411
1.2177662120988537
1.2171004182691887
1.2184554390233813
1.2171026166682033
1.2192647112180603
1.2171033000731419
1.2202316559178592
1.2170994610730279
1.2216228718631417
1.2170815750536164
1.2227001388253087
1.3412934714411491
1.3468110722053976
1.3413196471917974
1.3450083093422647
1.3413225902845871
1.3438206000353459
1.3413206858852771
1.3428651283954141
1.3413175339354757
1.342063745710032
1.3413151356386694
1.3415794762710991
1.3413142146654926
1.3413850632455691
1.3413140101474375
1.341341101722868
1.3413140101474375
1.3413850632455691
1.3413142146654926
1.3415794762710991
1.3413151356386694
1.342063745710032
1.3413175339354757
1.3428651283954141
1.3413206858852771
1.3438206000353459
1.3413225902845871
1.3450083093422647
1.3413196471917974
1.3468110722053976
1.3412934714411491
1.3486451353339457
1.4911376486534382
1.4967790031083283
1.4911702124367308
1.4950211356333996
1.4911711000504444
1.4938593083263247
1.4911678305733596
1.4928558473703031
1.4911636933733929
1.4919697706250987
1.4911607961312288
1.4914373918537636
1.491159758595658
1.4912305149190301
1.4911595425166306
1.4911853228172278
1.4911595425166306
1.4912305149190301
1.491159758595658
1.4914373918537636
1.4911607961312288
1.4919697706250987
1.4911636933733929
1.4928558473703031
1.4911678305733596
1.4938593083263247
1.4911711000504444
1.4950211356333996
1.4911702124367308
1.4967790031083283
1.4911376486534382
1.5
1.6400875511631232
1.6457665320548605
1.6401234357094718
1.6441249713963453
1.6401224154479306
1.6429880615579173
1.6401181445111612
1.6419243813831046
1.6401131876350008
1.640953716853115
1.640109958444711
1.6403854422551787
1.6401088931000662
1.6401752519756827
1.6401086879811175
1.6401314497254531
1.6401086879811175
1.6401752519756827
1.6401088931000662
1.6403854422551787
1.640109958444711
1.640953716853115
1.6401131876350008
1.6419243813831046
1.6401181445111612
1.6429880615579173
1.6401224154479306
1.6441249713963453
1.6401234357094718
1.6457665320548605
1.6400875511631232
1.6513548646660543
1.7649187552990235
1.7703055504900065
1.7649530635049913
1.7689403124920233
1.764952408321566
1.767912221265507
1.7649481796222279
1.7668090913606673
1.764942855830981
1.7657746697676777
1.7649396124576235
1.7651964120884804
1.7649386383182228
1.7649962414643936
1.7649384667318566
1.7649569094562205
1.7649384667318566
1.7649962414643936
1.7649386383182228
1.7651964120884804
1.7649396124576235
1.7657746697676777
1.764942855830981
1.7668090913606673
1.7649481796222279
1.767912221265507
1.764952408321566
1.7689403124920233
1.7649530635049913
1.7703055504900065
1.7649187552990235
1.7772998611746911
1.8546092923829083
1.8601042184651593
1.8546398514006019
1.8587330280703589
1.8546413050006008
1.8576859513662192
1.8546377386764625
1.8564835387566643
1.8546325464714755
1.8554063513978498
1.8546296478086326
1.8548515856213212
1.8546288637586401
1.8546749131481568
1.8546287379078865
1.8546424566959168
1.8546287379078865
1.8546749131481568
1.8546288637586401
1.8548515856213212
1.8546296478086326
1.8554063513978498
1.8546325464714755
1.8564835387566643
1.8546377386764625
1.8576859513662192
1.8546413050006008
1.8587330280703589
1.8546398514006019
1.8601042184651593
1.8546092923829083
1.8670357598021707
1.9139200952085
1.918838038803941
1.9139446652077277
1.9178015219278179
1.9139480615427058
1.9168871021252589
1.9139454218424501
1.9156513925677321
1.9139409474517657
1.9146066163134334
1.9139386783364216
1.9141156135873088
1.9139381246069231
1.9139721510465417
1.9139380431841102
1.9139475093188432
1.9139380431841102
1.9139721510465417
1.9139381246069231
1.9141156135873088
1.9139386783364216
1.9146066163134334
1.9139409474517657
1.9156513925677321
1.9139454218424501
1.9168871021252589
1.9139480615427058
1.9178015219278179
1.9139446652077277
1.918838038803941
1.9139200952085
1.9241418199787566
1.9481994858384579
1.953633692992111
1.9482184210948637
1.9523021912608736
1.9482226975125363
1.9510954376080984
1.9482206940206457
1.9497305239320599
1.9482172016162314
1.9487547556697851
1.9482156230093652
1.9483475067028413
1.9482152750292918
1.9482388617734667
1.9482152278448162
1.9482213911375024
1.9482152278448162
1.9482388617734667
1.9482152750292918
1.9483475067028413
1.9482156230093652
1.9487547556697851
1.9482172016162314
1.9497305239320599
1.9482206940206457
1.9510954376080984
1.9482226975125363
1.9523021912608736
1.9482184210948637
1.953633692992111
1.9481994858384579
1.9579122720843811
1.9711512209106221
1.9746831121969561
1.971164108677397
1.9741061465784824
1.97116841694315
1.973349825637676
1.9711673287168632
1.9722922813964114
1.9711650789358981
1.9715475661021751
1.9711641341978079
1.9712532718186802
1.9711639406629484
1.9711790849493971
1.9711639159759113
1.9711676935907481
1.9711639159759113
1.9711790849493971
1.9711639406629484
1.9712532718186802
1.9711641341978079
1.9715475661021751
1.9711650789358981
1.9722922813964114
1.9711673287168632
1.973349825637676
1.97116841694315
1.9741061465784824
1.971164108677397
1.9746831121969561
1.9711512209106221
1.9770226300899743
1.9803371241255323
1.9851467807411491
1.9803459008407411
1.9838039765187543
1.9803491946923018
1.9824663249554932
1.9803483512457438
1.9812840088527137
1.9803469065067438
1.9806317927070489
1.9803463697384573
1.9804075771277656
1.9803462694473559
1.9803560210009008
1.9803462574924708
1.9803485698907788
1.9803462574924708
1.9803560210009008
1.9803462694473559
1.9804075771277656
1.9803463697384573
1.9806317927070489
1.9803469065067438
1.9812840088527137
1.9803483512457438
1.9824663249554932
1.9803491946923018
1.9838039765187543
1.9803459008407411
1.9851467807411491
1.9803371241255323
1.9875683491468141
1.9915006539944622
1.9925023598177369
1.9915073616065679
1.992300201540639
1.9915107676984749
1.9921144385141001
1.9915105934445669
1.9918300085496918
1.9915098327190652
1.9916189630465622
1.9915095512666867
1.9915347415115316
1.9915094990935209
1.9915137010894977
1.9915094929012891
1.9915105183436159
1.9915094929012891
1.9915137010894977
1.9915094990935209
1.9915347415115316
1.9915095512666867
1.9916189630465622
1.9915098327190652
1.9918300085496918
1.9915105934445669
1.9921144385141001
1.9915107676984749
1.992300201540639
1.9915073616065679
1.9925023598177369
1.9915006539944622
1.993307149075715
1.991537893220231
1.9949018190709591
1.9915411257166904
1.9937607728150539
1.9915425524300594
1.9927286830977022
1.9915423253959763
1.9920004555400628
1.9915419452333836
1.9916666502300964
1.9915418243204093
1.9915663003206152
1.991541804492456
1.9915454223597351
1.9915418023637244
1.9915426098982381
1.9915418023637244
1.9915454223597351
1.991541804492456
1.9915663003206152
1.9915418243204093
1.9916666502300964
1.9915419452333836
1.9920004555400628
1.9915423253959763
1.9927286830977022
1.9915425524300594
1.9937607728150539
1.9915411257166904
1.9949018190709591
1.991537893220231
1.9964063974185799
1.9993120650376366
1.9980008510906557
1.9993198606906859
1.9979967595839956
1.999323736674256
1.9983034839313949
1.9993232827142888
1.9988413077480163
1.9993221306700995
1.9991787947497868
1.9993217130283749
1.999292891732283
1.9993216366163953
1.9993174357700523
1.9993216275732002
1.9993207236767179
1.9993216275732002
1.9993174357700523
1.9993216366163953
1.999292891732283
1.9993217130283749
1.9991787947497868
1.9993221306700995
1.9988413077480163
1.9993232827142888
1.9983034839313949
1.999323736674256
1.9979967595839956
1.9993198606906859
1.9980008510906557
1.9993120650376366
1.9980732653366724
1.9963185760001492
1.9981190436710516
1.9963194853061199
1.9974022729395715
1.996319866840486
1.9968414272651036
1.9963198281425849
1.996507645317199
1.996319778590508
1.9963691880097036
1.9963197706315856
1.9963293628790706
1.9963197707660061
1.9963211912011469
1.9963197709514211
1.9963200903022116
1.9963197709514211
1.9963211912011469
1.9963197707660061
1.9963293628790706
1.9963197706315856
1.9963691880097036
1.996319778590508
1.996507645317199
1.9963198281425849
1.9968414272651036
1.996319866840486
1.9974022729395715
1.9963194853061199
1.9981190436710516
1.9963185760001492
1.9989677689632452
2.0035388404385785
2.0004435054393173
2.0035578643068952
2.0010918003294971
2.0035618872182561
2.0016469730087509
2.0035596667377416
2.0025173282054345
2.0035564811350319
2.0031924634192335
2.0035551701742125
2.0034699790432411
2.0035549005476616
2.0035405839267444
2.003554865915087
2.0035513679985866
2.003554865915087
2.0035405839267444
2.0035549005476616
2.0034699790432411
2.0035551701742125
2.0031924634192335
2.0035564811350319
2.0025173282054345
2.0035596667377416
2.0016469730087509
2.0035618872182561
2.0010918003294971
2.0035578643068952
2.0004435054393173
2.0035388404385785
1.9994472213630763
1.9986667897309722
1.9993857522008109
1.9986667016625617
1.999074317319175
1.9986667801353832
1.9988481926357846
1.9986668118586328
1.9987299184531822
1.9986668366084162
1.9986840743535601
1.9986668523923981
1.9986705221884911
1.9986668572276738
1.9986674707691585
1.998666858082305
1.9986670139118397
1.998666858082305
1.9986674707691585
1.9986668572276738
1.9986705221884911
1.9986668523923981
1.9986840743535601
1.9986668366084162
1.9987299184531822
1.9986668118586328
1.9988481926357846
1.9986667801353832
1.999074317319175
1.9986667016625617
1.9993857522008109
1.9986667897309722
1.999704042886487
2.0066380138881401
2.0021525503708539
2.0066776479876514
2.0034680417813875
2.0066731690375375
2.0043752825432239
2.0066664841874422
2.0053840485794994
2.0066610155451028
2.0061784792051309
2.0066587139269503
2.006535540865527
2.0066581937858956
2.0066355763138284
2.0066581204494556
2.0066521305116463
2.0066581204494556
2.0066355763138284
2.0066581937858956
2.006535540865527
2.0066587139269503
2.0061784792051309
2.0066610155451028
2.0053840485794994
2.0066664841874422
2.0043752825432239
2.0066731690375375
2.0034680417813875
2.0066776479876514
2.0021525503708539
2.0066380138881401
1.9998415637808975
1.9999151889582765
1.9999151889582765
1.9999151889582765
1.9999151889582765
1.9999151889582765
1.9999151889582765
1.9999151889582765
1.9999151889582765
1.9999151889582765
1.9999151889582765
1.9999151889582765
1.9999151889582765
1.9999151889582765
1.9999151889582765
1.9999151889582765
1.9999151889582765
1.9999151889582765
1.9999151889582765
1.9999151889582765
1.9999151889582765
1.9999151889582765
1.9999151889582765
1.9999151889582765
1.9999151889582765
1.9999151889582765
1.9999151889582765
1.9999151889582765
1.9999151889582765
1.9999151889582765
1.9999151889582765
1.9999151889582765
1.9999151889582765
1.0019774060112956
1.0009745225247682
1.002000832065385
1.0013402930695905
1.002002480581538
1.0014595282494667
1.0019998630353748
1.0014430454778034
1.0019988409846035
1.0014526001375086
1.0019976124450116
1.001624834318293
1.0019958893128624
1.0018159901452306
1.0019949569642739
1.0018892448822436
1.0019949569642739
1.0018159901452306
1.0019958893128624
1.001624834318293
1.0019976124450116
1.0014526001375086
1.0019988409846035
1.0014430454778034
1.0019998630353748
1.0014595282494667
1.002002480581538
1.0013402930695905
1.002000832065385
1.0009745225247682
1.0019774060112956
1.0000453978687025
0.99994967234003918
1.0000617416228774
0.99994950189926224
1.0000281610319866
0.9999494699437369
0.99999815882391208
0.99994948932989569
0.99997463626969707
0.99994950672584182
0.99996002493580793
0.99994951667988297
0.99995313998958635
0.99994952287608685
0.99995061931575657
0.99994952571014895
0.99995003445576391
0.99994952571014895
0.99995061931575657
0.99994952287608685
0.99995313998958635
0.99994951667988297
0.99996002493580793
0.99994950672584182
0.99997463626969707
0.99994948932989569
0.99999815882391208
0.9999494699437369
1.0000281610319866
0.99994950189926224
1.0000617416228774
0.99994967234003918
1.0000848110417238
1.0011367310316577
1.000481199590936
1.001148104342956
1.0005806979260881
1.0011517842403268
1.000633574494989
1.001151390388318
1.0006067867376551
1.0011514464544309
1.0006276224302912
1.0011505252300508
1.0008090208036609
1.0011490699821226
1.0009937508796583
1.0011483298260957
1.0010613388832699
1.0011483298260957
1.0009937508796583
1.0011490699821226
1.0008090208036609
1.0011505252300508
1.0006276224302912
1.0011514464544309
1.0006067867376551
1.001151390388318
1.000633574494989
1.0011517842403268
1.0005806979260881
1.001148104342956
1.000481199590936
1.0011367310316577
1.0001584362191025
1.0000419227670898
1.0002486738533105
1.0000419654963122
1.0001975310770135
1.0000419768643083
1.0001470670514119
1.0000419853398668
1.0001011072531794
1.0000419855454505
1.0000681882929834
1.0000419843717958
1.0000510741641719
1.0000419858240737
1.0000445743296591
1.0000419871429413
1.0000430853309832
1.0000419871429413
1.0000445743296591
1.0000419858240737
1.0000510741641719
1.0000419843717958
1.0000681882929834
1.0000419855454505
1.0001011072531794
1.0000419853398668
1.0001470670514119
1.0000419768643083
1.0001975310770135
1.0000419654963122
1.0002486738533105
1.0000419227670898
1.0002959571135133
1.001099720274959
1.0006352087219494
1.0011044031223861
1.000671215894138
1.001106755699807
1.0006872904196737
1.0011076009103013
1.0005876331683325
1.0011082227558694
1.0006243616913062
1.0011074152910384
1.000827053818202
1.0011063801944726
1.0009948955386962
1.001105939758945
1.0010495695806718
1.001105939758945
1.0009948955386962
1.0011063801944726
1.000827053818202
1.0011074152910384
1.0006243616913062
1.0011082227558694
1.0005876331683325
1.0011076009103013
1.0006872904196737
1.001106755699807
1.000671215894138
1.0011044031223861
1.0006352087219494
1.001099720274959
1.0005527786369237
1.0006998905649922
1.0009880652272343
1.0007000013981502
1.0009333126835458
1.000700090593305
1.0008728876059452
1.0007001321767761
1.0008076595567994
1.000700124445272
1.0007525009264644
1.0007001069455383
1.000719603149868
1.0007000993621875
1.0007058600694256
1.0007000977211777
1.0007025576250081
1.0007000977211777
1.0007058600694256
1.0007000993621875
1.000719603149868
1.0007001069455383
1.0007525009264644
1.000700124445272
1.0008076595567994
1.0007001321767761
1.0008728876059452
1.000700090593305
1.0009333126835458
1.0007000013981502
1.0009880652272343
1.0006998905649922
1.001032231036755
1.0022091364788246
1.0018921785758146
1.0022109423127932
1.001847410194008
1.0022122448378163
1.0017471493680292
1.0022134430802139
1.0016901692031415
1.0022137843121723
1.0018362947660544
1.0022131714766016
1.002038977789474
1.0022126582973483
1.0021558067275993
1.0022124828375356
1.0021875799485651
1.0022124828375356
1.0021558067275993
1.0022126582973483
1.002038977789474
1.0022131714766016
1.0018362947660544
1.0022137843121723
1.0016901692031415
1.0022134430802139
1.0017471493680292
1.0022122448378163
1.001847410194008
1.0022109423127932
1.0018921785758146
1.0022091364788246
1.0019267346633276
1.0032722355699186
1.003583023017979
1.0032724186905171
1.0035422995777181
1.0032725917973713
1.003494678075481
1.0032726853466276
1.0034318523554424
1.0032726718663945
1.0033613519135107
1.0032726252472057
1.0033092478839041
1.0032726000822048
1.0032842765330006
1.0032725930723243
1.0032778187253286
1.0032725930723243
1.0032842765330006
1.0032726000822048
1.0033092478839041
1.0032726252472057
1.0033613519135107
1.0032726718663945
1.0034318523554424
1.0032726853466276
1.003494678075481
1.0032725917973713
1.0035422995777181
1.0032724186905171
1.003583023017979
1.0032722355699186
1.0035936025814203
1.0073228791415103
1.0067352723304788
1.0073237387031131
1.0067500083386229
1.0073247835963566
1.0067988147960421
1.0073256755119138
1.0069580440487105
1.0073257652554841
1.0071537077172674
1.0073254718922879
1.0072720268026798
1.0073252896414142
1.0073139953363899
1.0073252361404106
1.0073221642672621
1.0073252361404106
1.0073139953363899
1.0073252896414142
1.0072720268026798
1.0073254718922879
1.0071537077172674
1.0073257652554841
1.0069580440487105
1.0073256755119138
1.0067988147960421
1.0073247835963566
1.0067500083386229
1.0073237387031131
1.0067352723304788
1.0073228791415103
1.006692850924285
1.0122259353305649
1.0124997125889954
1.0122263238021982
1.0124790505804748
1.0122265925143989
1.0124609236781026
1.0122267297274476
1.0124237961065445
1.0122267034616941
1.0123526719485265
1.0122266018343014
1.0122840755280351
1.0122265394765562
1.0122462683584184
1.0122265204030776
1.012235780689742
1.0122265204030776
1.0122462683584184
1.0122265394765562
1.0122840755280351
1.0122266018343014
1.0123526719485265
1.0122267034616941
1.0124237961065445
1.0122267297274476
1.0124609236781026
1.0122265925143989
1.0124790505804748
1.0122263238021982
1.0124997125889954
1.0122259353305649
1.0124316508531859
1.0239851417048884
1.0232848448640284
1.0239859662195041
1.0234534050787221
1.0239867311453155
1.0236718132073923
1.0239871965428959
1.0238947878728801
1.0239872090477105
1.0240076574238395
1.0239870372532671
1.0240187713440172
1.0239869278683678
1.0240027323537424
1.0239868938201182
1.0239956235180316
1.0239868938201182
1.0240027323537424
1.0239869278683678
1.0240187713440172
1.0239870372532671
1.0240076574238395
1.0239872090477105
1.0238947878728801
1.0239871965428959
1.0236718132073923
1.0239867311453155
1.0234534050787221
1.0239859662195041
1.0232848448640284
1.0239851417048884
1.0229773699100257
1.0420390614112995
1.0423156580164468
1.0420400677803769
1.0422726757693326
1.0420404115968778
1.0422650676174845
1.0420405128958901
1.0422549382724147
1.0420404491824078
1.0421940587641723
1.0420402683996597
1.0421160621305516
1.042040148611211
1.0420676018735153
1.0420401096754079
1.0420534111864181
1.0420401096754079
1.0420676018735153
1.042040148611211
1.0421160621305516
1.0420402683996597
1.0421940587641723
1.0420404491824078
1.0422549382724147
1.0420405128958901
1.0422650676174845
1.0420404115968778
1.0422726757693326
1.0420400677803769
1.0423156580164468
1.0420390614112995
1.0420877279156189
1.0767136055951809
1.0764107468855673
1.0767153279069146
1.0765156484737421
1.0767157563395682
1.0766834508420928
1.0767158610447027
1.0768224643548252
1.076715785963587
1.0768421159649528
1.0767155644102073
1.0767890102445097
1.0767154129348127
1.0767439321043593
1.0767153627286217
1.0767295794220328
1.0767153627286217
1.0767439321043593
1.0767154129348127
1.0767890102445097
1.0767155644102073
1.0768421159649528
1.076715785963587
1.0768224643548252
1.0767158610447027
1.0766834508420928
1.0767157563395682
1.0765156484737421
1.0767153279069146
1.0764107468855673
1.0767136055951809
1.0758581800212434
1.1330346336034922
1.1334232497634329
1.1330375485839768
1.133265450857301
1.1330376019880131
1.1332421195525293
1.1330374433900021
1.1332545078354981
1.1330372906162687
1.13320698378372
1.1330370208894893
1.1331243213117435
1.133036840381209
1.1330688548349084
1.1330367808698398
1.1330522495238597
1.1330367808698398
1.1330688548349084
1.133036840381209
1.1331243213117435
1.1330370208894893
1.13320698378372
1.1330372906162687
1.1332545078354981
1.1330374433900021
1.1332421195525293
1.1330376019880131
1.133265450857301
1.1330375485839768
1.1334232497634329
1.1330346336034922
1.1329642401978293
1.2229356267484963
1.2230815509110771
1.2229397074102357
1.2229730593517971
1.2229392706262687
1.2230381009187328
1.2229389427870596
1.2231211148913437
1.2229387643931706
1.2231042372446104
1.2229384640644159
1.2230266433468486
1.2229382625261846
1.2229704634358547
1.222938196800788
1.2229535083758858
1.222938196800788
1.2229704634358547
1.2229382625261846
1.2230266433468486
1.2229384640644159
1.2231042372446104
1.2229387643931706
1.2231211148913437
1.2229389427870596
1.2230381009187328
1.2229392706262687
1.2229730593517971
1.2229397074102357
1.2230815509110771
1.2229356267484963
1.2227001388253087
1.3475475459334103
1.3478328534924187
1.3475516509589915
1.3476535294171745
1.3475506637750179
1.3476789428269149
1.3475502411145386
1.3477501612461842
1.3475500697487728
1.3477243790260474
1.3475497554307525
1.3476393796768682
1.3475495463837022
1.347580894880805
1.3475494801913941
1.3475638048504996
1.3475494801913941
1.347580894880805
1.3475495463837022
1.3476393796768682
1.3475497554307525
1.3477243790260474
1.3475500697487728
1.3477501612461842
1.3475502411145386
1.3476789428269149
1.3475506637750179
1.3476535294171745
1.3475516509589915
1.3478328534924187
1.3475475459334103
1.3486451353339457
1.4971118646350969
1.4970465408708278
1.4971146481579269
1.4970438455351822
1.4971134893275779
1.4971713626465493
1.4971131817980083
1.4972969215981948
1.4971130743619963
1.4972830825654533
1.4971127798682133
1.4971979694691593
1.497112585382419
1.4971408688432442
1.4971125262675025
1.4971247876678717
1.4971125262675025
1.4971408688432442
1.497112585382419
1.4971979694691593
1.4971127798682133
1.4972830825654533
1.4971130743619963
1.4972969215981948
1.4971131817980083
1.4971713626465493
1.4971134893275779
1.4970438455351822
1.4971146481579269
1.4970465408708278
1.4971118646350969
1.5
1.6467174000600229
1.6464846398683968
1.6467183928059348
1.6466019943695995