# vtk DataFile Version 3.0
Euler density step 334
ASCII
DATASET STRUCTURED_POINTS
DIMENSIONS 32 32 32
ORIGIN 0 0 0
SPACING 0.3125 0.3125 0.3125
POINT_DATA 32768
SCALARS density double 1
LOOKUP_TABLE default
1.0065723657380556
1.0020209175896531
1.0065864136961098
1.0040596473471772
1.0065871464423781
1.0055387099440507
1.0065843981042266
1.0062939399756585
1.0065832791479132
1.0065292402887658
1.0065830874762367
1.006576047088505
1.0065830682299903
1.00658239559689
1.0065830669114986
1.0065829705460572
1.0065830669114986
1.00658239559689
1.0065830682299903
1.006576047088505
1.0065830874762367
1.0065292402887658
1.0065832791479132
1.0062939399756585
1.0065843981042266
1.0055387099440507
1.0065871464423781
1.0040596473471772
1.0065864136961098
1.0020209175896531
1.0065723657380556
1.0000453978687025
1.0000707683256258
1.0000821200809036
1.0000707390590284
1.0000763426376797
1.0000707333880099
1.0000729005710634
1.0000707369036299
1.000071348159816
1.0000707387958294
1.0000708592089524
1.0000707391770682
1.0000707559519728
1.0000707392200556
1.0000707409333018
1.0000707392231691
1.0000707394843318
1.0000707392231691
1.0000707409333018
1.0000707392200556
1.0000707559519728
1.0000707391770682
1.0000708592089524
1.0000707387958294
1.000071348159816
1.0000707369036299
1.0000729005710634
1.0000707333880099
1.0000763426376797
1.0000707390590284
1.0000821200809036
1.0000707683256258
1.0000848110417238
1.0059178686045258
1.0021867576863293
1.0059251078996225
1.003916149320393
1.0059262336232002
1.0051773980870544
1.0059251191358001
1.0057429227918002
1.0059246938904296
1.0058948648879751
1.0059246299649034
1.0059211838120576
1.0059246243069129
1.005924330328118
1.0059246239644402
1.005924586054463
1.0059246239644402
1.005924330328118
1.0059246243069129
1.0059211838120576
1.0059246299649034
1.0058948648879751
1.0059246938904296
1.0057429227918002
1.0059251191358001
1.0051773980870544
1.0059262336232002
1.003916149320393
1.0059251078996225
1.0021867576863293
1.0059178686045258
1.0001584362191025
1.000256709071413
1.0002795752310429
1.0002567117207786
1.0002667321816057
1.0002567086877434
1.0002599850151119
1.0002567084887874
1.0002574757576217
1.0002567087493568
1.0002568364334719
1.0002567088119307
1.0002567242255338
1.0002567088185721
1.0002567102138953
1.0002567088189707
1.0002567090117171
1.0002567088189707
1.0002567102138953
1.0002567088185721
1.0002567242255338
1.0002567088119307
1.0002568364334719
1.0002567087493568
1.0002574757576217
1.0002567084887874
1.0002599850151119
1.0002567086877434
1.0002667321816057
1.0002567117207786
1.0002795752310429
1.000256709071413
1.0002959571135133
1.0042820955178242
1.0019896698870971
1.0042845414154598
1.0032230035685925
1.0042850464123481
1.0039585535317457
1.0042848465226382
1.0042187345924718
1.0042847740190921
1.0042755926506328
1.0042847643125727
1.0042838493147368
1.0042847635455854
1.0042846954062421
1.0042847635050072
1.0042847557541834
1.0042847635050072
1.0042846954062421
1.0042847635455854
1.0042838493147368
1.0042847643125727
1.0042755926506328
1.0042847740190921
1.0042187345924718
1.0042848465226382
1.0039585535317457
1.0042850464123481
1.0032230035685925
1.0042845414154598
1.0019896698870971
1.0042820955178242
1.0005527786369237
1.0008958765771778
1.0009748626893165
1.0008958853852594
1.0009294283102099
1.000895886081085
1.0009059874066051
1.0008958856442161
1.0008980156263685
1.0008958855479417
1.0008962068241325
1.0008958855382768
1.0008959213286805
1.0008958855375547
1.0008958885865278
1.0008958855375021
1.0008958859414934
1.0008958855375021
1.0008958885865278
1.0008958855375547
1.0008959213286805
1.0008958855382768
1.0008962068241325
1.0008958855479417
1.0008980156263685
1.0008958856442161
1.0009059874066051
1.000895886081085
1.0009294283102099
1.0008958853852594
1.0009748626893165
1.0008958765771778
1.001032231036755
1.0033507726312139
1.0025750987749478
1.0033512944868772
1.0030574865207187
1.0033514139257289
1.0032796517426799
1.0033513990932308
1.0033399161253354
1.0033513925553412
1.003350144336872
1.0033513917221901
1.0033512971465146
1.0033513916624726
1.003351386676167
1.0033513916598344
1.003351391321339
1.0033513916598344
1.003351386676167
1.0033513916624726
1.0033512971465146
1.0033513917221901
1.003350144336872
1.0033513925553412
1.0033399161253354
1.0033513990932308
1.0032796517426799
1.0033514139257289
1.0030574865207187
1.0033512944868772
1.0025750987749478
1.0033507726312139
1.0019267346633276
1.003214177933752
1.0034402815669574
1.0032142075755823
1.0033122104479426
1.0032142129725479
1.0032440763327728
1.0032142112691389
1.0032205469678754
1.0032142106706612
1.0032151702285579
1.0032142105920281
1.0032143178780946
1.003214210585716
1.0032142197591023
1.0032142105853517
1.0032142118052845
1.0032142105853517
1.0032142197591023
1.003214210585716
1.0032143178780946
1.0032142105920281
1.0032151702285579
1.0032142106706612
1.0032205469678754
1.0032142112691389
1.0032440763327728
1.0032142129725479
1.0033122104479426
1.0032142075755823
1.0034402815669574
1.003214177933752
1.0035936025814203
1.0065677643731334
1.0066970429937696
1.006567892054816
1.0066505746414125
1.0065679190457866
1.0066006129992495
1.0065679149579794
1.0065760487444835
1.0065679131716914
1.0065692723271122
1.0065679129306668
1.0065680747139527
1.0065679129116911
1.0065679273276686
1.0065679129106588
1.0065679148812241
1.0065679129106588
1.0065679273276686
1.0065679129116911
1.0065680747139527
1.0065679129306668
1.0065692723271122
1.0065679131716914
1.0065760487444835
1.0065679149579794
1.0066006129992495
1.0065679190457866
1.0066505746414125
1.006567892054816
1.0066970429937696
1.0065677643731334
1.006692850924285
1.0115841669786096
1.0121118336876884
1.0115843080745464
1.0118218520790025
1.0115843295277309
1.0116594457680126
1.0115843175389818
1.0116007331437684
1.0115843136181806
1.0115868553796596
1.0115843131002142
1.0115846019122137
1.0115843130580147
1.0115843380439222
1.0115843130555311
1.0115843164061444
1.0115843130555311
1.0115843380439222
1.0115843130580147
1.0115846019122137
1.0115843131002142
1.0115868553796596
1.0115843136181806
1.0116007331437684
1.0115843175389818
1.0116594457680126
1.0115843295277309
1.0118218520790025
1.0115843080745464
1.0121118336876884
1.0115841669786096
1.0124316508531859
1.0218730753581307
1.022595310073716
1.0218733654508612
1.0222108264525012
1.0218734024133318
1.0219834797522589
1.0218733737169039
1.0218979434680593
1.0218733646415807
1.0218772204484421
1.0218733634425023
1.0218738051921628
1.0218733633442747
1.021873401745671
1.0218733633384445
1.0218733685009107
1.0218733633384445
1.021873401745671
1.0218733633442747
1.0218738051921628
1.0218733634425023
1.0218772204484421
1.0218733646415807
1.0218979434680593
1.0218733737169039
1.0219834797522589
1.0218734024133318
1.0222108264525012
1.0218733654508612
1.022595310073716
1.0218730753581307
1.0229773699100257
1.0404848486890013
1.0415380659538818
1.0404854052599783
1.0409748446583642
1.0404854535818004
1.0406452952239189
1.0404853881932368
1.040521143604227
1.04048536858553
1.0404909846496018
1.0404853660203459
1.0404860088770012
1.0404853658102413
1.0404854215570269
1.0404853657977007
1.0404853732649231
1.0404853657977007
1.0404854215570269
1.0404853658102413
1.0404860088770012
1.0404853660203459
1.0404909846496018
1.04048536858553
1.040521143604227
1.0404853881932368
1.0406452952239189
1.0404854535818004
1.0409748446583642
1.0404854052599783
1.0415380659538818
1.0404848486890013
1.0420877279156189
1.0737604923681745
1.075176428133463
1.0737615261978857
1.0744252589352572
1.0737615666148137
1.0739802411630406
1.0737614295739344
1.0738105025232074
1.0737613906413788
1.0737690823235209
1.07376138562876
1.0737622607883015
1.0737613852208774
1.0737614604425267
1.0737613851965577
1.0737613951660214
1.0737613851965577
1.0737614604425267
1.0737613852208774
1.0737622607883015
1.07376138562876
1.0737690823235209
1.0737613906413788
1.0738105025232074
1.0737614295739344
1.0739802411630406
1.0737615666148137
1.0744252589352572
1.0737615261978857
1.075176428133463
1.0737604923681745
1.0758581800212434
1.1302292181959415
1.132095784217914
1.1302310548031398
1.1311055164130452
1.1302310199195955
1.1305191140625386
1.1302307528125459
1.1302949827229452
1.130230681741546
1.130240621842195
1.1302306728404998
1.130231784435195
1.1302306721283175
1.1302307657153399
1.1302306720863164
1.1302306842119429
1.1302306720863164
1.1302307657153399
1.1302306721283175
1.130231784435195
1.1302306728404998
1.130240621842195
1.130230681741546
1.1302949827229452
1.1302307528125459
1.1305191140625386
1.1302310199195955
1.1311055164130452
1.1302310548031398
1.132095784217914
1.1302292181959415
1.1329642401978293
1.219147909440075
1.221532881070188
1.2191509673471259
1.2202657401782138
1.2191507074425285
1.2195156814941635
1.2191502277029327
1.2192302482489104
1.2191501095923831
1.2191621845011551
1.2191500954153327
1.2191514040492153
1.2191500943154538
1.2191502005893762
1.2191500942521472
1.2191501074962634
1.2191500942521472
1.2191502005893762
1.2191500943154538
1.2191514040492153
1.2191500954153327
1.2191621845011551
1.2191501095923831
1.2192302482489104
1.2191502277029327
1.2195156814941635
1.2191507074425285
1.2202657401782138
1.2191509673471259
1.221532881070188
1.219147909440075
1.2227001388253087
1.3439848094711633
1.3469098734218148
1.3439894207703473
1.3453564432227036
1.3439886921456998
1.3444311309319954
1.3439879127487271
1.3440823373477975
1.3439877368268542
1.3440014435237537
1.3439877168809482
1.3439891336601935
1.3439877154034443
1.3439878243940897
1.343987715321844
1.3439877281334649
1.343987715321844
1.3439878243940897
1.3439877154034443
1.3439891336601935
1.3439877168809482
1.3440014435237537
1.3439877368268542
1.3440823373477975
1.3439879127487271
1.3444311309319954
1.3439886921456998
1.3453564432227036
1.3439894207703473
1.3469098734218148
1.3439848094711633
1.3486451353339457
1.4939343102637066
1.497325994351318
1.4939404907844758
1.4955346109665051
1.4939390476984544
1.4944464791348082
1.493937933837183
1.4940421148362264
1.4939377055021603
1.4939520326191253
1.4939376815130621
1.493939070061572
1.4939376798543527
1.4939377792601389
1.4939376797686457
1.4939376905971189
1.4939376797686457
1.4939377792601389
1.4939376798543527
1.493939070061572
1.4939376815130621
1.4939520326191253
1.4939377055021603
1.4940421148362264
1.493937933837183
1.4944464791348082
1.4939390476984544
1.4955346109665051
1.4939404907844758
1.497325994351318
1.4939343102637066
1.5
1.6439217447029244
1.6476307620317747
1.6439289309715384
1.6456791331118974
1.6439268423003708
1.6444668528912487
1.643925523708496
1.6440304063847173
1.6439252805859546
1.6439387428253114
1.643925257349877
1.6439264659378539
1.6439252558769761
1.6439253356404679
1.6439252558069004
1.6439252638013837
1.6439252558069004
1.6439253356404679
1.6439252558769761
1.6439264659378539
1.643925257349877
1.6439387428253114
1.6439252805859546
1.6440304063847173
1.643925523708496
1.6444668528912487
1.6439268423003708
1.6456791331118974
1.6439289309715384
1.6476307620317747
1.6439217447029244
1.6513548646660543
1.7691269828118019
1.7729678282869199
1.7691340386100953
1.770915775194414
1.7691318484417535
1.7696527132927002
1.7691306164574618
1.7692249619473102
1.7691304117074564
1.7691416397047708
1.7691303939249101
1.7691313265243087
1.7691303928899871
1.7691304497727232
1.7691303928444813
1.769130398114795
1.7691303928444813
1.7691304497727232
1.7691303928899871
1.7691313265243087
1.7691303939249101
1.7691416397047708
1.7691304117074564
1.7692249619473102
1.7691306164574618
1.7696527132927002
1.7691318484417535
1.770915775194414
1.7691340386100953
1.7729678282869199
1.7691269828118019
1.7772998611746911
1.859036256529605
1.8627667163703852
1.8590421295726238
1.8606936780570105
1.85904040050318
1.8594903911318901
1.8590394865854187
1.8591151988162278
1.8590393479459273
1.8590477318456247
1.8590393368735663
1.859039986280169
1.8590393362747824
1.8590393732740111
1.8590393362501678
1.8590393394577167
1.8590393362501678
1.8590393732740111
1.8590393362747824
1.859039986280169
1.8590393368735663
1.8590477318456247
1.8590393479459273
1.8591151988162278
1.8590394865854187
1.8594903911318901
1.85904040050318
1.8606936780570105
1.8590421295726238
1.8627667163703852
1.859036256529605
1.8670357598021707
1.9170891928538731
1.9204157380765035
1.9170933790463254
1.9184746904338463
1.9170922973280846
1.9174420563951364
1.9170917418984608
1.9171467101610664
1.9170916637572628
1.9170973840885512
1.9170916579296398
1.9170920763230592
1.9170916576326849
1.917091680215012
1.9170916576211305
1.9170916594805756
1.9170916576211305
1.917091680215012
1.9170916576326849
1.9170920763230592
1.9170916579296398
1.9170973840885512
1.9170916637572628
1.9171467101610664
1.9170917418984608
1.9174420563951364
1.9170922973280846
1.9184746904338463
1.9170933790463254
1.9204157380765035
1.9170891928538731
1.9241418199787566
1.952207725642175
1.9549136630453587
1.952210309517844
1.9532597617137766
1.9522097502041809
1.9524581302631498
1.9522094638267169
1.9522462938751934
1.9522094258644191
1.952213071294689
1.9522094231810343
1.9522096782647007
1.9522094230505149
1.9522094362751954
1.9522094230456533
1.9522094240948211
1.9522094230456533
1.9522094362751954
1.9522094230505149
1.9522096782647007
1.9522094231810343
1.952213071294689
1.9522094258644191
1.9522462938751934
1.9522094638267169
1.9524581302631498
1.9522097502041809
1.9532597617137766
1.952210309517844
1.9549136630453587
1.952207725642175
1.9579122720843811
1.9728734709627347
1.974847230198213
1.9728748683903081
1.9736006631358809
1.9728746238061337
1.9730376372499359
1.9728744950164219
1.9728976170583359
1.9728744786632322
1.9728766835282181
1.9728744775523683
1.9728746269830624
1.9728744775002083
1.9728744850324436
1.9728744774983293
1.9728744780810108
1.9728744774983293
1.9728744850324436
1.9728744775002083
1.9728746269830624
1.9728744775523683
1.9728766835282181
1.9728744786632322
1.9728976170583359
1.9728744950164219
1.9730376372499359
1.9728746238061337
1.9736006631358809
1.9728748683903081
1.974847230198213
1.9728734709627347
1.9770226300899743
1.9846040057046708
1.9859898599976733
1.9846046835335167
1.9850838262132611
1.9846045876408798
1.9847068480425587
1.9846045352165027
1.9846184872936108
1.9846045287906395
1.9846058198058354
1.9846045283677256
1.9846046137780187
1.9846045283484119
1.9846045325680388
1.9846045283477316
1.9846045286686056
1.9846045283477316
1.9846045325680388
1.9846045283484119
1.9846046137780187
1.9846045283677256
1.9846058198058354
1.9846045287906395
1.9846184872936108
1.9846045352165027
1.9847068480425587
1.9846045876408798
1.9850838262132611
1.9846046835335167
1.9859898599976733
1.9846040057046708
1.9875683491468141
1.9920401632473224
1.9926594754511813
1.9920405048020626
1.9922715157921105
1.9920404815073502
1.992092098404161
1.9920404625380654
1.992047678448948
1.9920404601386805
1.9920411361305326
1.9920404599792838
1.9920405049591834
1.9920404599720287
1.9920404621987375
1.9920404599717789
1.9920404601410793
1.9920404599717789
1.9920404621987375
1.9920404599720287
1.9920405049591834
1.9920404599792838
1.9920411361305326
1.9920404601386805
1.992047678448948
1.9920404625380654
1.992092098404161
1.9920404815073502
1.9922715157921105
1.9920405048020626
1.9926594754511813
1.9920401632473224
1.993307149075715
1.9951866842637391
1.9957437979510402
1.9951868033802798
1.9953653957393442
1.9951867925051656
1.9952225583710985
1.9951867857598353
1.9951914354184195
1.9951867849718481
1.9951871997469131
1.995186784922387
1.9951868115941744
1.9951867849202225
1.9951867862083219
1.9951867849201481
1.9951867850162945
1.9951867849201481
1.9951867862083219
1.9951867849202225
1.9951868115941744
1.995186784922387
1.9951871997469131
1.9951867849718481
1.9951914354184195
1.9951867857598353
1.9952225583710985
1.9951867925051656
1.9953653957393442
1.9951868033802798
1.9957437979510402
1.9951866842637391
1.9964063974185799
1.9998735988246952
1.9989741008926967
1.9998742384442336
1.999616269584982
1.9998742306629809
1.999831354396481
1.9998742037396928
1.9998697581329319
1.9998742001161514
1.9998738921366024
1.999874199861247
1.9998741848783905
1.9998741998490908
1.9998741993205407
1.9998741998486578
1.9998741998213294
1.9998741998486578
1.9998741993205407
1.9998741998490908
1.9998741848783905
1.999874199861247
1.9998738921366024
1.9998742001161514
1.9998697581329319
1.9998742037396928
1.999831354396481
1.9998742306629809
1.999616269584982
1.9998742384442336
1.9989741008926967
1.9998735988246952
1.9980732653366724
1.9985460516151088
1.9987437430751418
1.9985460624377156
1.9986097425884506
1.9985460624239877
1.9985588869402933
1.9985460627753762
1.99854773449942
1.9985460628769185
1.9985462119330784
1.9985460628877265
1.9985460724445516
1.9985460628883949
1.9985460633477874
1.9985460628884226
1.9985460629225131
1.9985460628884226
1.9985460633477874
1.9985460628883949
1.9985460724445516
1.9985460628877265
1.9985462119330784
1.9985460628769185
1.99854773449942
1.9985460627753762
1.9985588869402933
1.9985460624239877
1.9986097425884506
1.9985460624377156
1.9987437430751418
1.9985460516151088
1.9989677689632452
2.0043925997543726
2.001536788354318
2.0043960478218876
2.0033196666550075
2.0043955006869565
2.0041592092783365
2.0043951786555261
2.0043632415535608
2.0043951368562838
2.0043922679584787
2.0043951339414083
2.0043949516774817
2.0043951338008412
2.0043951252065493
2.0043951337956911
2.0043951331740772
2.0043951337956911
2.0043951252065493
2.0043951338008412
2.0043949516774817
2.0043951339414083
2.0043922679584787
2.0043951368562838
2.0043632415535608
2.0043951786555261
2.0041592092783365
2.0043955006869565
2.0033196666550075
2.0043960478218876
2.001536788354318
2.0043925997543726
1.9994472213630763
1.9996000805752279
1.9996596359851848
1.9996000576005004
1.9996233137452035
1.9996000645402146
1.9996058714034459
1.9996000695916325
1.999600985012854
1.9996000705041395
1.9996001660121223
1.9996000705884598
1.9996000775540039
1.999600070593466
1.9996000709660191
1.9996000705936807
1.9996000706238954
1.9996000705936807
1.9996000709660191
1.999600070593466
1.9996000775540039
1.9996000705884598
1.9996001660121223
1.9996000705041395
1.999600985012854
1.9996000695916325
1.9996058714034459
1.9996000645402146
1.9996233137452035
1.9996000576005004
1.9996596359851848
1.9996000805752279
1.999704042886487
2.0067136048544256
2.0027784665155397
2.0067228203797569
2.0049624959687931
2.006719219379169
2.006247264035816
2.0067177189649641
2.0066413312394733
2.0067175100588948
2.0067094790607687
2.0067174942964385
2.0067169082053748
2.0067174934882366
2.0067174621964292
2.0067174934569412
2.0067174909253631
2.0067174934569412
2.0067174621964292
2.0067174934882366
2.0067169082053748
2.0067174942964385
2.0067094790607687
2.0067175100588948
2.0066413312394733
2.0067177189649641
2.006247264035816
2.006719219379169
2.0049624959687931
2.0067228203797569
2.0027784665155397
2.0067136048544256
1.9998415637808975
1.9999151889582765
1.9999151889582765
1.9999151889582765
1.9999151889582765
1.9999151889582765
1.9999151889582765
1.9999151889582765
1.9999151889582765
1.9999151889582765
1.9999151889582765
1.9999151889582765
1.9999151889582765
1.9999151889582765
1.9999151889582765
1.9999151889582765
1.9999151889582765
1.9999151889582765
1.9999151889582765
1.9999151889582765
1.9999151889582765
1.9999151889582765
1.9999151889582765
1.9999151889582765
1.9999151889582765
1.9999151889582765
1.9999151889582765
1.9999151889582765
1.9999151889582765
1.9999151889582765
1.9999151889582765
1.9999151889582765
1.9999151889582765
1.0040949581179242
1.0020806960927271
1.0041069225100454
1.0027822832788034
1.0041063544976636
1.003377433372735
1.0041038531388191
1.0038438067615651
1.0041025985764296
1.0040430139848848
1.004102322479882
1.0040930454970816
1.0041022871367304
1.0041012447627713
1.0041022840463485
1.0041021104818981
1.0041022840463485
1.0041012447627713
1.0041022871367304
1.0040930454970816
1.004102322479882
1.0040430139848848
1.0041025985764296
1.0038438067615651
1.0041038531388191
1.003377433372735
1.0041063544976636
1.0027822832788034
1.0041069225100454
1.0020806960927271
1.0040949581179242
1.0000453978687025
1.0000750758025092
1.0000832810485563
1.0000750502523614
1.0000789645359878
1.0000750456511456
1.0000763979299414
1.0000750488069632
1.0000754306917061
1.0000750506981995
1.0000751358798512
1.0000750511626069
1.0000750653602213
1.0000750512287642
1.0000750529910101
1.0000750512350653
1.0000750515596022
1.0000750512350653
1.0000750529910101
1.0000750512287642
1.0000750653602213
1.0000750511626069
1.0000751358798512
1.0000750506981995
1.0000754306917061
1.0000750488069632
1.0000763979299414
1.0000750456511456
1.0000789645359878
1.0000750502523614
1.0000832810485563
1.0000750758025092
1.0000848110417238
1.0025743938638685
1.0008464906846029
1.0025802740395946
1.0013706139626422
1.0025812571279431
1.0019807995996348
1.0025801558108718
1.002394893522301
1.0025795972178213
1.0025426626815068
1.0025794879223393
1.0025744169093695
1.002579475420349
1.0025789672483654
1.0025794744249561
1.0025793980183708
1.0025794744249561
1.0025789672483654
1.002579475420349
1.0025744169093695
1.0025794879223393
1.0025426626815068
1.0025795972178213
1.002394893522301
1.0025801558108718
1.0019807995996348
1.0025812571279431
1.0013706139626422
1.0025802740395946
1.0008464906846029
1.0025743938638685
1.0001584362191025
1.0002715026360587
1.0002865435615655
1.0002715152019126
1.000277775345731
1.0002715120407792
1.0002735070317617
1.000271510302146
1.0002720184757059
1.0002715101466382
1.0002716093276294
1.000271510172311
1.0002715245528193
1.0002715101795816
1.0002715117437015
1.0002715101804327
1.0002715104369619
1.0002715101804327
1.0002715117437015
1.0002715101795816
1.0002715245528193
1.000271510172311
1.0002716093276294
1.0002715101466382
1.0002720184757059
1.000271510302146
1.0002735070317617
1.0002715120407792
1.000277775345731
1.0002715152019126
1.0002865435615655
1.0002715026360587
1.0002959571135133
1.0025492900386042
1.001122146816223
1.0025514274660108
1.0017149912544749
1.0025519626036856
1.002227720939288
1.0025517052335411
1.0024714682879619
1.0025515833787189
1.0025382830582961
1.0025515622557288
1.0025500010410098
1.0025515600564892
1.0025514236822823
1.0025515598942196
1.0025515417121793
1.0025515598942196
1.0025514236822823
1.0025515600564892
1.0025500010410098
1.0025515622557288
1.0025382830582961
1.0025515833787189
1.0024714682879619
1.0025517052335411
1.002227720939288
1.0025519626036856
1.0017149912544749
1.0025514274660108
1.001122146816223
1.0025492900386042
1.0005527786369237
1.0009447721383582
1.0010002810898535
1.000944784651107
1.000971038039308
1.0009447856485649
1.0009538498424007
1.0009447846989949
1.0009469858612015
1.0009447844400949
1.0009451640972786
1.0009447844091657
1.0009448322965266
1.0009447844069714
1.0009447889864724
1.0009447844068744
1.0009447850814477
1.0009447844068744
1.0009447889864724
1.0009447844069714
1.0009448322965266
1.0009447844091657
1.0009451640972786
1.0009447844400949
1.0009469858612015
1.0009447846989949
1.0009538498424007
1.0009447856485649
1.000971038039308
1.000944784651107
1.0010002810898535
1.0009447721383582
1.001032231036755
1.003002096016602
1.0023345201217231
1.003002646818915
1.0026955789007665
1.0030027943985014
1.0029111137286211
1.0030027657681859
1.0029849237919473
1.0030027510437631
1.0030003823164948
1.0030027486220101
1.003002524310233
1.0030027483823072
1.0030027326729964
1.0030027483655326
1.0030027467132949
1.0030027483655326
1.0030027326729964
1.0030027483823072
1.003002524310233
1.0030027486220101
1.0030003823164948
1.0030027510437631
1.0029849237919473
1.0030027657681859
1.0029111137286211
1.0030027943985014
1.0026955789007665
1.003002646818915
1.0023345201217231
1.003002096016602
1.0019267346633276
1.0033651571231443
1.0035187117391398
1.0033651860971353
1.0034414783128143
1.003365191247749
1.0033923333807024
1.0033651890156607
1.0033718546158141
1.0033651881276273
1.0033663400923172
1.0033651879896026
1.0033653330982155
1.0033651879764218
1.0033652018249986
1.0033651879755132
1.0033651900119298
1.0033651879755132
1.0033652018249986
1.0033651879764218
1.0033653330982155
1.0033651879896026
1.0033663400923172
1.0033651881276273
1.0033718546158141
1.0033651890156607
1.0033923333807024
1.003365191247749
1.0034414783128143
1.0033651860971353
1.0035187117391398
1.0033651571231443
1.0035936025814203
1.0067992691558956
1.00679018802037
1.0067994098001358
1.0068255337185104
1.0067994429139624
1.0068193015157683
1.0067994370140583
1.0068062454762587
1.0067994339544384
1.0068008400427937
1.0067994334501871
1.0067996301973552
1.0067994334007047
1.0067994534678255
1.0067994333972725
1.0067994364785076
1.0067994333972725
1.0067994534678255
1.0067994334007047
1.0067996301973552
1.0067994334501871
1.0068008400427937
1.0067994339544384
1.0068062454762587
1.0067994370140583
1.0068193015157683
1.0067994429139624
1.0068255337185104
1.0067994098001358
1.00679018802037
1.0067992691558956
1.006692850924285
1.0119985994878875
1.0123149399425042
1.0119987153174805
1.0121651899315089
1.011998731227336
1.0120615384321476
1.0119987181663335
1.0120148585568891
1.0119987132061761
1.0120015946407557
1.0119987124211571
1.0119990837673198
1.0119987123445919
1.0119987483587005
1.0119987123392113
1.0119987176939018
1.0119987123392113
1.0119987483587005
1.0119987123445919
1.0119990837673198
1.0119987124211571
1.0120015946407557
1.0119987132061761
1.0120148585568891
1.0119987181663335
1.0120615384321476
1.011998731227336
1.0121651899315089
1.0119987153174805
1.0123149399425042
1.0119985994878875
1.0124316508531859
1.0225281208656254
1.0229015493790272
1.0225283459169636
1.0227405944102044
1.0225283702340713
1.0226136932052046
1.0225283417342985
1.0225511743553772
1.0225283311315041
1.0225325082392354
1.0225283294430625
1.0225288756809316
1.0225283292772611
1.0225283827024707
1.0225283292655425
1.0225283372440748
1.0225283292655425
1.0225283827024707
1.0225283292772611
1.0225288756809316
1.0225283294430625
1.0225325082392354
1.0225283311315041
1.0225511743553772
1.0225283417342985
1.0226136932052046
1.0225283702340713
1.0227405944102044
1.0225283459169636
1.0229015493790272
1.0225281208656254
1.0229773699100257
1.0414271871697172
1.0419629443341716
1.0414275805011055
1.0417237955257295
1.0414276000906448
1.0415462908246984
1.0414275408449916
1.0414594154517254
1.041427519932117
1.0414333681986971
1.0414275166252553
1.0414282818185132
1.0414275163006494
1.0414275909992994
1.0414275162776752
1.0414275273903872
1.0414275162776752
1.0414275909992994
1.0414275163006494
1.0414282818185132
1.0414275166252553
1.0414333681986971
1.041427519932117
1.0414594154517254
1.0414275408449916
1.0415462908246984
1.0414276000906448
1.0417237955257295
1.0414275805011055
1.0419629443341716
1.0414271871697172
1.0420877279156189
1.075069184835183
1.0757258869412725
1.0750698572221089
1.0754384375013466
1.0750698494805069
1.0752211831165051
1.0750697375210398
1.0751109643866505
1.0750696998530993
1.0750772964137358
1.0750696939596922
1.0750706850348333
1.075069693384139
1.075069789368384
1.0750696933435868
1.0750697074640052
1.0750696933435868
1.075069789368384
1.075069693384139
1.0750706850348333
1.0750696939596922
1.0750772964137358
1.0750696998530993
1.0751109643866505
1.0750697375210398
1.0752211831165051
1.0750698494805069
1.0754384375013466
1.0750698572221089
1.0757258869412725
1.075069184835183
1.0758581800212434
1.1319215129039384
1.1327179073492881
1.1319225889819842
1.1323683781066132
1.1319225004619942
1.132107744699629
1.1319223060444588
1.1319728670271696
1.1319222443535975
1.1319314803642369
1.1319222349188143
1.1319234204712372
1.1319222340123498
1.1319223463570589
1.1319222339494521
1.1319222500650397
1.1319222339494521
1.1319223463570589
1.1319222340123498
1.1319234204712372
1.1319222349188143
1.1319314803642369
1.1319222443535975
1.1319728670271696
1.1319223060444588
1.132107744699629
1.1319225004619942
1.1323683781066132
1.1319225889819842
1.1327179073492881
1.1319215129039384
1.1329642401978293
1.2211853279809446
1.2221054575444008
1.2211868769159138
1.2217038018441304
1.2211866325766141
1.221402908611817
1.2211863286259832
1.2212447684210814
1.2211862383513248
1.2211966639697494
1.2211862250396512
1.2211875196501896
1.2211862237988464
1.2211863416147477
1.2211862237152682
1.2211862398720177
1.2211862237152682
1.2211863416147477
1.2211862237988464
1.2211875196501896
1.2211862250396512
1.2211966639697494
1.2211862383513248
1.2212447684210814
1.2211863286259832
1.221402908611817
1.2211866325766141
1.2217038018441304
1.2211868769159138
1.2221054575444008
1.2211853279809446
1.2227001388253087
1.3462817569367524
1.3472877287021772
1.3462837016356091
1.3468575235435045
1.3462832477589004
1.3465236739531727
1.3462828295148794
1.3463461930293481
1.3462827136028719
1.3462935334152519
1.3462826973979445
1.3462839674828904
1.3462826959635141
1.346282804251451
1.3462826958719851
1.3462827097172951
1.3462826958719851
1.346282804251451
1.3462826959635141
1.3462839674828904
1.3462826973979445
1.3462935334152519
1.3462827136028719
1.3463461930293481
1.3462828295148794
1.3465236739531727
1.3462832477589004
1.3468575235435045
1.3462837016356091
1.3472877287021772
1.3462817569367524
1.3486451353339457
1.4965576927216548
1.4975918728787718
1.4965598086040257
1.4971726674963959
1.4965591992917093
1.4968127592059215
1.4965587115299577
1.4966221100026103
1.4965585870553735
1.4965686530490976
1.4965585710387661
1.4965596586398748
1.496558569732761
1.4965586545922045
1.4965585696560204
1.4965585795691385
1.4965585696560204
1.4965586545922045
1.496558569732761
1.4965596586398748
1.4965585710387661
1.4965686530490976
1.4965585870553735
1.4966221100026103
1.4965587115299577
1.4968127592059215
1.4965591992917093
1.4971726674963959
1.4965598086040257
1.4975918728787718
1.4965576927216548
1.5
1.647160807073307
1.648207782578206
1.6471627564604057
1.6477993243516114
1.647162185116279
1.6474099656986252
1.6471617395160438
1.6472182890518157
1.6471616365018342
1.6471697726270442