# vtk DataFile Version 3.0
Euler density step 568
ASCII
DATASET STRUCTURED_POINTS
DIMENSIONS 32 32 32
ORIGIN 0 0 0
SPACING 0.3125 0.3125 0.3125
POINT_DATA 32768
SCALARS density double 1
LOOKUP_TABLE default
1.008972502744736
1.0018003460469249
1.0090118403449544
1.003620026325579
1.0090267892496723
1.0050043809258549
1.0090282378511699
1.0060880286845941
1.0090261867830601
1.0071286870627061
1.0090209404272821
1.0080687143347364
1.0090160218182112
1.0086447527842952
1.0090139136736134
1.008820874399363
1.0090139136736134
1.0086447527842952
1.0090160218182112
1.0080687143347364
1.0090209404272821
1.0071286870627061
1.0090261867830601
1.0060880286845941
1.0090282378511699
1.0050043809258549
1.0090267892496723
1.003620026325579
1.0090118403449544
1.0018003460469249
1.008972502744736
1.0000453978687025
0.99966996208411329
0.99997268097761927
0.99966976670294161
0.99986744951395001
0.99966970585349046
0.99978235953437744
0.9996697164957431
0.99972373532071013
0.99966973412842042
0.9996913766372979
0.99966974996000557
0.99967711764193379
0.9996697625501505
0.99967198978041005
0.99966976843320021
0.99967079668066539
0.99966976843320021
0.99967198978041005
0.9996697625501505
0.99967711764193379
0.99966974996000557
0.9996913766372979
0.99966973412842042
0.99972373532071013
0.9996697164957431
0.99978235953437744
0.99966970585349046
0.99986744951395001
0.99966976670294161
0.99997268097761927
0.99966996208411329
1.0000848110417238
1.008253720092118
1.0019176364822646
1.008277241490388
1.003359470651918
1.0082909695490605
1.0045815617066696
1.0082947270849594
1.0055821188204748
1.008294397480971
1.0065742031374334
1.0082902745386688
1.0074572306249081
1.0082863602178889
1.0079771809517404
1.0082847734598701
1.0081308458429561
1.0082847734598701
1.0079771809517404
1.0082863602178889
1.0074572306249081
1.0082902745386688
1.0065742031374334
1.008294397480971
1.0055821188204748
1.0082947270849594
1.0045815617066696
1.0082909695490605
1.003359470651918
1.008277241490388
1.0019176364822646
1.008253720092118
1.0001584362191025
0.99937273618878386
1.0000571922054815
0.99937279186816286
0.99983574067328795
0.99937282587623888
0.99964870816266715
0.99937283991389769
0.99951125360663129
0.99937283446828562
0.99942962428462756
0.99937283689852874
0.9993917282340844
0.99937284553252859
0.99937810535735505
0.99937285035901047
0.99937505238888291
0.99937285035901047
0.99937810535735505
0.99937284553252859
0.9993917282340844
0.99937283689852874
0.99942962428462756
0.99937283446828562
0.99951125360663129
0.99937283991389769
0.99964870816266715
0.99937282587623888
0.99983574067328795
0.99937279186816286
1.0000571922054815
0.99937273618878386
1.0002959571135133
1.0067514778114508
1.0017186454582823
1.006763422786805
1.0027923454348693
1.006772672941354
1.0037024028617061
1.0067772635040562
1.0044953383616986
1.0067778945971315
1.0053947193637427
1.0067750336541468
1.0061609086182599
1.0067726232224969
1.0065674738192383
1.0067717729624905
1.0066781876760307
1.0067717729624905
1.0065674738192383
1.0067726232224969
1.0061609086182599
1.0067750336541468
1.0053947193637427
1.0067778945971315
1.0044953383616986
1.0067772635040562
1.0037024028617061
1.006772672941354
1.0027923454348693
1.006763422786805
1.0017186454582823
1.0067514778114508
1.0005527786369237
0.99945271690272708
1.0006535976442017
0.99945304071888685
1.0002961847431615
0.99945333894649935
0.9999828553479333
0.9994534538059634
0.9997349852616253
0.99945343076451598
0.99957387301468215
0.99945339440909886
0.99949389140739486
0.99945338161730601
0.99946439951499078
0.99945337949186741
0.99945781864678196
0.99945337949186741
0.99946439951499078
0.99945338161730601
0.99949389140739486
0.99945339440909886
0.99957387301468215
0.99945343076451598
0.9997349852616253
0.9994534538059634
0.9999828553479333
0.99945333894649935
1.0002961847431615
0.99945304071888685
1.0006535976442017
0.99945271690272708
1.001032231036755
1.0062091644409465
1.0026213108361544
1.0062148984006589
1.0032952390330316
1.0062206168421994
1.0038989986797147
1.0062244488297951
1.0045994798853985
1.0062248334688344
1.005364360017597
1.0062233104524454
1.0058952905251874
1.0062223061185722
1.0061282392005313
1.0062220073235726
1.0061840338730115
1.0062220073235726
1.0061282392005313
1.0062223061185722
1.0058952905251874
1.0062233104524454
1.005364360017597
1.0062248334688344
1.0045994798853985
1.0062244488297951
1.0038989986797147
1.0062206168421994
1.0032952390330316
1.0062148984006589
1.0026213108361544
1.0062091644409465
1.0019267346633276
1.0012860158534085
1.0030849017914711
1.0012867599826669
1.0025935599135214
1.0012875098256064
1.0021525000563367
1.0012878343073301
1.0017795917583272
1.0012877763191481
1.0015122519039126
1.0012876461148708
1.0013672072545574
1.001287585367695
1.0013101334640799
1.0012875702549751
1.0012969043570727
1.0012875702549751
1.0013101334640799
1.001287585367695
1.0013672072545574
1.0012876461148708
1.0015122519039126
1.0012877763191481
1.0017795917583272
1.0012878343073301
1.0021525000563367
1.0012875098256064
1.0025935599135214
1.0012867599826669
1.0030849017914711
1.0012860158534085
1.0035936025814203
1.0093768241996204
1.0071920763602631
1.0093801130555184
1.007681791559687
1.009384012970584
1.008196228857585
1.0093864170466504
1.008737776943085
1.0093865761335652
1.0091373558100045
1.0093860024881443
1.0093212052370224
1.0093856861010422
1.009374803923661
1.0093856009686681
1.0093836930792883
1.0093856009686681
1.009374803923661
1.0093856861010422
1.0093212052370224
1.0093860024881443
1.0091373558100045
1.0093865761335652
1.008737776943085
1.0093864170466504
1.008196228857585
1.009384012970584
1.007681791559687
1.0093801130555184
1.0071920763602631
1.0093768241996204
1.006692850924285
1.0093927423012745
1.0118068712441994
1.0093944389256153
1.0111860517159565
1.0093959574572806
1.0106323505681218
1.0093965680742132
1.0101443487861297
1.009396387199949
1.0097606973551982
1.0093960342583483
1.0095327099321922
1.0093958587842051
1.0094365054128427
1.0093958124423081
1.0094132291617535
1.0093958124423081
1.0094365054128427
1.0093958587842051
1.0095327099321922
1.0093960342583483
1.0097606973551982
1.009396387199949
1.0101443487861297
1.0093965680742132
1.0106323505681218
1.0093959574572806
1.0111860517159565
1.0093944389256153
1.0118068712441994
1.0093927423012745
1.0124316508531859
1.0233821337590565
1.0232201531407645
1.0233854291055038
1.0234109712702768
1.0233885325940848
1.0236093923575962
1.0233899605220114
1.0237016755678259
1.0233898585174273
1.0236265813540752
1.023389346851205
1.0235033992320919
1.0233890690352374
1.0234286846837874
1.0233889917859762
1.0234075399300888
1.0233889917859762
1.0234286846837874
1.0233890690352374
1.0235033992320919
1.023389346851205
1.0236265813540752
1.0233898585174273
1.0237016755678259
1.0233899605220114
1.0236093923575962
1.0233885325940848
1.0234109712702768
1.0233854291055038
1.0232201531407645
1.0233821337590565
1.0229773699100257
1.0381385144106954
1.0412973356137798
1.0381427033357573
1.0404699179967889
1.0381454543612612
1.0397740512127918
1.0381462424858228
1.039168636349034
1.0381457090828108
1.0386657793107781
1.0381449152827815
1.0383472941311718
1.0381445152922295
1.0382064328309113
1.0381444067827446
1.0381714258322068
1.0381444067827446
1.0382064328309113
1.0381445152922295
1.0383472941311718
1.0381449152827815
1.0386657793107781
1.0381457090828108
1.039168636349034
1.0381462424858228
1.0397740512127918
1.0381454543612612
1.0404699179967889
1.0381427033357573
1.0412973356137798
1.0381385144106954
1.0420877279156189
1.0732844616211212
1.0755256855277866
1.0732913966698354
1.075050110433782
1.0732950589683012
1.0746784477853615
1.0732958919481781
1.0742775464767822
1.073295114784272
1.0738385069908838
1.0732940354135125
1.0735158840868533
1.073293488074466
1.0733630906646445
1.0732933384154428
1.0733240352132858
1.0732933384154428
1.0733630906646445
1.073293488074466
1.0735158840868533
1.0732940354135125
1.0738385069908838
1.073295114784272
1.0742775464767822
1.0732958919481781
1.0746784477853615
1.0732950589683012
1.075050110433782
1.0732913966698354
1.0755256855277866
1.0732844616211212
1.0758581800212434
1.1275878445503014
1.1318894112293398
1.1275996871947662
1.1306252771842402
1.1276038733035185
1.1296876880026161
1.1276041085020476
1.1289252573924848
1.1276026704050919
1.1282835480119
1.1276011171602172
1.1278670079259232
1.1276003750703509
1.1276810711884737
1.1276001783118494
1.1276349238573418
1.1276001783118494
1.1276810711884737
1.1276003750703509
1.1278670079259232
1.1276011171602172
1.1282835480119
1.1276026704050919
1.1289252573924848
1.1276041085020476
1.1296876880026161
1.1276038733035185
1.1306252771842402
1.1275996871947662
1.1318894112293398
1.1275878445503014
1.1329642401978293
1.2171656600487446
1.2216689515003605
1.2171849663812175
1.2203224694408172
1.2171891270751449
1.2193970901587217
1.2171884967925279
1.2186294470369412
1.2171863259532385
1.2179389807684315
1.2171842684325047
1.2174770200983618
1.2171833276860267
1.2172706525880048
1.2171830860946031
1.2172199065245708
1.2171830860946031
1.2172706525880048
1.2171833276860267
1.2174770200983618
1.2171842684325047
1.2179389807684315
1.2171863259532385
1.2186294470369412
1.2171884967925279
1.2193970901587217
1.2171891270751449
1.2203224694408172
1.2171849663812175
1.2216689515003605
1.2171656600487446
1.2227001388253087
1.3412252808741563
1.3468138458842751
1.3412535897991844
1.3450120393840099
1.3412567870990582
1.3438338724004133
1.3412548490144662
1.3429078278943205
1.3412516953890354
1.3420977317340939
1.341249034272294
1.3415689674806703
1.3412478931295033
1.3413398297276702
1.3412476151110875
1.3412849807056011
1.3412476151110875
1.3413398297276702
1.3412478931295033
1.3415689674806703
1.341249034272294
1.3420977317340939
1.3412516953890354
1.3429078278943205
1.3412548490144662
1.3438338724004133
1.3412567870990582
1.3450120393840099
1.3412535897991844
1.3468138458842751
1.3412252808741563
1.3486451353339457
1.491139567820263
1.4967704712489676
1.4911745735978081
1.4950488428193502
1.4911755351040084
1.4939229035629484
1.4911721741208199
1.4929715491153528
1.4911680252554407
1.4920820948844795
1.4911647991421322
1.4915004757266614
1.4911635083590622
1.491255707631723
1.4911632134739548
1.491198977067022
1.4911632134739548
1.491255707631723
1.4911635083590622
1.4915004757266614
1.4911647991421322
1.4920820948844795
1.4911680252554407
1.4929715491153528
1.4911721741208199
1.4939229035629484
1.4911755351040084
1.4950488428193502
1.4911745735978081
1.4967704712489676
1.491139567820263
1.5
1.6399631011202456
1.645629861652941
1.6400014925744948
1.6440268428149583
1.6400003938821175
1.6429262876814548
1.6399960300076921
1.6419244010111969
1.6399910468005476
1.6409484041778719
1.6399874196875632
1.6403238975878982
1.6399860814683174
1.6400732044517417
1.639985798857855
1.6400176621270866
1.639985798857855
1.6400732044517417
1.6399860814683174
1.6403238975878982
1.6399874196875632
1.6409484041778719
1.6399910468005476
1.6419244010111969
1.6399960300076921
1.6429262876814548
1.6400003938821175
1.6440268428149583
1.6400014925744948
1.645629861652941
1.6399631011202456
1.6513548646660543
1.7648214603282406
1.770119447837492
1.7648579178854145
1.7688318819877382
1.7648571896993248
1.7678654305699404
1.7648529956140573
1.7668448763568432
1.7648476311219565
1.7658019390997606
1.764843935802912
1.7651606111556177
1.7648426929236818
1.7649191181023802
1.7648424529032773
1.7648685731059846
1.7648424529032773
1.7649191181023802
1.7648426929236818
1.7651606111556177
1.764843935802912
1.7658019390997606
1.7648476311219565
1.7668448763568432
1.7648529956140573
1.7678654305699404
1.7648571896993248
1.7688318819877382
1.7648579178854145
1.770119447837492
1.7648214603282406
1.7772998611746911
1.8544516707244978
1.8599031722037707
1.8544841794141804
1.8585798358162204
1.8544856985353841
1.8575934940310546
1.8544823393737584
1.8564765839541892
1.854477039039462
1.8553755475813969
1.8544736636130108
1.8547509080719273
1.8544726420252826
1.8545345214056901
1.8544724625608062
1.8544921471566531
1.8544724625608062
1.8545345214056901
1.8544726420252826
1.8547509080719273
1.8544736636130108
1.8553755475813969
1.854477039039462
1.8564765839541892
1.8544823393737584
1.8575934940310546
1.8544856985353841
1.8585798358162204
1.8544841794141804
1.8599031722037707
1.8544516707244978
1.8670357598021707
1.9139768913470521
1.9187477199131748
1.914002994204137
1.9177949266398564
1.9140066081137221
1.9170035084075292
1.9140043300540512
1.9158664686689724
1.9139996751702519
1.9147832484417548
1.9139969647343591
1.9142211220824183
1.9139962260003236
1.9140425598391695
1.9139961074059078
1.9140098658789162
1.9139961074059078
1.9140425598391695
1.9139962260003236
1.9142211220824183
1.9139969647343591
1.9147832484417548
1.9139996751702519
1.9158664686689724
1.9140043300540512
1.9170035084075292
1.9140066081137221
1.9177949266398564
1.914002994204137
1.9187477199131748
1.9139768913470521
1.9241418199787566
1.9481553000478113
1.9535698231162919
1.9481755159696958
1.9522838787059438
1.948180169420453
1.9511794343772408
1.948178510556039
1.9498621603840287
1.9481747510972764
1.9488192858515154
1.9481728065010899
1.9483425706013882
1.948172330041503
1.9482048888858299
1.9481722597688786
1.9481813279406623
1.9481722597688786
1.9482048888858299
1.948172330041503
1.9483425706013882
1.9481728065010899
1.9488192858515154
1.9481747510972764
1.9498621603840287
1.948178510556039
1.9511794343772408
1.948180169420453
1.9522838787059438
1.9481755159696958
1.9535698231162919
1.9481553000478113
1.9579122720843811
1.9713403285457294
1.9746994695976463
1.971354082992729
1.9742187737618986
1.9713588932509354
1.9736181501919599
1.9713581213979683
1.9726184875087527
1.9713556428741257
1.9718183040259434
1.9713544497000353
1.971470296158172
1.9713541786431665
1.9713752727272902
1.9713541411164648
1.9713597455288301
1.9713541411164648
1.9713752727272902
1.9713541786431665
1.971470296158172
1.9713544497000353
1.9718183040259434
1.9713556428741257
1.9726184875087527
1.9713581213979683
1.9736181501919599
1.9713588932509354
1.9742187737618986
1.971354082992729
1.9746994695976463
1.9713403285457294
1.9770226300899743
1.9802877269341439
1.9851648736033607
1.9802971751958738
1.9838811384493946
1.9803009411198609
1.9826024747487823
1.9803002685378237
1.98138497638339
1.9802986040316972
1.9806518498173071
1.9802979025013299
1.9803789540497583
1.980297758171818
1.9803115370379656
1.9802977395897892
1.980301209581445
1.9802977395897892
1.9803115370379656
1.980297758171818
1.9803789540497583
1.9802979025013299
1.9806518498173071
1.9802986040316972
1.98138497638339
1.9803002685378237
1.9826024747487823
1.9803009411198609
1.9838811384493946
1.9802971751958738
1.9851648736033607
1.9802877269341439
1.9875683491468141
1.9914343330038207
1.9924659072653477
1.9914415936647518
1.9922473030079699
1.9914455680714287
1.9920805768016883
1.9914455520543286
1.9918057239656177
1.9914446496932865
1.9915770563356161
1.9914442727803578
1.9914770478248411
1.991444196254345
1.9914500462942242
1.9914441864624182
1.9914457051355117
1.9914441864624182
1.9914500462942242
1.991444196254345
1.9914770478248411
1.9914442727803578
1.9915770563356161
1.9914446496932865
1.9918057239656177
1.9914455520543286
1.9920805768016883
1.9914455680714287
1.9922473030079699
1.9914415936647518
1.9924659072653477
1.9914343330038207
1.993307149075715
1.9913713576043124
1.9949014501333722
1.9913749346925556
1.9937676439670102
1.9913766568574403
1.9927166041114126
1.9913764760889874
1.9919252332307464
1.9913760090500967
1.9915348329506704
1.9913758421664085
1.9914089673579547
1.991375812276543
1.9913810141922661
1.9913758088304574
1.9913770378602618
1.9913758088304574
1.9913810141922661
1.991375812276543
1.9914089673579547
1.9913758421664085
1.9915348329506704
1.9913760090500967
1.9919252332307464
1.9913764760889874
1.9927166041114126
1.9913766568574403
1.9937676439670102
1.9913749346925556
1.9949014501333722
1.9913713576043124
1.9964063974185799
1.9990022346564227
1.9979275830469689
1.9990105677717473
1.9978328216022843
1.9990149348367989
1.9979961283363774
1.9990146742290194
1.9984810737604852
1.9990133508675452
1.9988399480860446
1.999012807041801
1.9989750695771014
1.9990126978811129
1.9990067728980265
1.9990126839690727
1.9990113196643011
1.9990126839690727
1.9990067728980265
1.9990126978811129
1.9989750695771014
1.999012807041801
1.9988399480860446
1.9990133508675452
1.9984810737604852
1.9990146742290194
1.9979961283363774
1.9990149348367989
1.9978328216022843
1.9990105677717473
1.9979275830469689
1.9990022346564227
1.9980732653366724
1.9961261243087898
1.9980899259264246
1.9961271760995851
1.9973401443118561
1.996127670453145
1.9967347170120586
1.9961276387407985
1.9963567782476594
1.9961275686880926
1.996191080837157
1.996127554227916
1.9961405788112447
1.9961275537263472
1.9961295956311162
1.99612755393339
1.9961280389808704
1.99612755393339
1.9961295956311162
1.9961275537263472
1.9961405788112447
1.996127554227916
1.996191080837157
1.9961275686880926
1.9963567782476594
1.9961276387407985
1.9967347170120586
1.996127670453145
1.9973401443118561
1.9961271760995851
1.9980899259264246
1.9961261243087898
1.9989677689632452
2.0033210301652193
2.000380547847298
2.0033412579598271
2.0009968502789715
2.00334554086982
2.0014386185007003
2.0033435888464393
2.0022215934644758
2.0033401939216073
2.0029161966173268
2.0033386129222142
2.0032317729663678
2.0033382535815574
2.0033189797414561
2.0033382035681138
2.0033331817795146
2.0033382035681138
2.0033189797414561
2.0033382535815574
2.0032317729663678
2.0033386129222142
2.0029161966173268
2.0033401939216073
2.0022215934644758
2.0033435888464393
2.0014386185007003
2.00334554086982
2.0009968502789715
2.0033412579598271
2.000380547847298
2.0033210301652193
1.9994472213630763
1.9985598331059167
1.999364035584676
1.99855975164891
1.9990285632793678
1.9985598583604709
1.9987758189545006
1.9985598955879365
1.9986375086317156
1.9985599188196401
1.9985818428091278
1.9985599361202124
1.9985647922243566
1.9985599421360973
1.9985607937277794
1.9985599433053656
1.9985601706618705
1.9985599433053656
1.9985607937277794
1.9985599421360973
1.9985647922243566
1.9985599361202124
1.9985818428091278
1.9985599188196401
1.9986375086317156
1.9985598955879365
1.9987758189545006
1.9985598583604709
1.9990285632793678
1.99855975164891
1.999364035584676
1.9985598331059167
1.999704042886487
2.0064278152426214
2.0020715114853593
2.0064697911165341
2.0033265423341144
2.006465059637013
2.0041507312675644
2.006458378375811
2.0050885936150622
2.0064526474316939
2.0059008715876256
2.0064499794691124
2.0062992681237071
2.0064493170606137
2.006419726544864
2.0064492160085989
2.0064408856923692
2.0064492160085989
2.006419726544864
2.0064493170606137
2.0062992681237071
2.0064499794691124
2.0059008715876256
2.0064526474316939
2.0050885936150622
2.006458378375811
2.0041507312675644
2.006465059637013
2.0033265423341144
2.0064697911165341
2.0020715114853593
2.0064278152426214
1.9998415637808975
1.9999151889582765
1.9999151889582765
1.9999151889582765
1.9999151889582765
1.9999151889582765
1.9999151889582765
1.9999151889582765
1.9999151889582765
1.9999151889582765
1.9999151889582765
1.9999151889582765
1.9999151889582765
1.9999151889582765
1.9999151889582765
1.9999151889582765
1.9999151889582765
1.9999151889582765
1.9999151889582765
1.9999151889582765
1.9999151889582765
1.9999151889582765
1.9999151889582765
1.9999151889582765
1.9999151889582765
1.9999151889582765
1.9999151889582765
1.9999151889582765
1.9999151889582765
1.9999151889582765
1.9999151889582765
1.9999151889582765
1.9999151889582765
1.001848477070959
1.0009454091880479
1.0018722818823265
1.0012927578242732
1.0018742264827807
1.0013915407900775
1.0018714883678932
1.0013679951457124
1.0018702834055244
1.0013368356780821
1.0018693231437055
1.0014691497805221
1.0018676404336264
1.0016552273091877
1.0018665866344565
1.0017330677018907
1.0018665866344565
1.0016552273091877
1.0018676404336264
1.0014691497805221
1.0018693231437055
1.0013368356780821
1.0018702834055244
1.0013679951457124
1.0018714883678932
1.0013915407900775
1.0018742264827807
1.0012927578242732
1.0018722818823265
1.0009454091880479
1.001848477070959
1.0000453978687025
0.9999405748261142
1.0000618200724138
0.99994039371979149
1.0000276420730567
0.99994036079098603
0.99999635908781648
0.99994038231887372
0.9999706468438897
0.99994040157146002
0.99995365048052021
0.99994041196274397
0.9999451578009434
0.99994041846659276
0.99994190792166182
0.99994042168391517
0.99994113445629706
0.99994042168391517
0.99994190792166182
0.99994041846659276
0.9999451578009434
0.99994041196274397
0.99995365048052021
0.99994040157146002
0.9999706468438897
0.99994038231887372
0.99999635908781648
0.99994036079098603
1.0000276420730567
0.99994039371979149
1.0000618200724138
0.9999405748261142
1.0000848110417238
1.0010044450972093
1.0004639823543864
1.0010159119304907
1.0005404090628012
1.0010198869165132
1.0005608757158853
1.0010193425062028
1.0005231610259779
1.001019294815783
1.0005027745701924
1.0010186488515136
1.00064779734011
1.0010171973547861
1.0008312521628
1.0010163356455186
1.0009045491870521
1.0010163356455186
1.0008312521628
1.0010171973547861
1.00064779734011
1.0010186488515136
1.0005027745701924
1.001019294815783
1.0005231610259779
1.0010193425062028
1.0005608757158853
1.0010198869165132
1.0005404090628012
1.0010159119304907
1.0004639823543864
1.0010044450972093
1.0001584362191025
1.0000336407077166
1.0002509244415629
1.0000336843443387
1.0002011357320046
1.0000336985681977
1.0001507558768949
1.0000337108331081
1.0001028610413771
1.0000337128110635
1.0000661278009868
1.0000337109538835
1.0000456074677326
1.0000337119897562
1.0000373006978842
1.0000337134380228
1.0000353111951874
1.0000337134380228
1.0000373006978842
1.0000337119897562
1.0000456074677326
1.0000337109538835
1.0000661278009868
1.0000337128110635
1.0001028610413771
1.0000337108331081
1.0001507558768949
1.0000336985681977
1.0002011357320046
1.0000336843443387
1.0002509244415629
1.0000336407077166
1.0002959571135133
1.0010125915817401
1.0006230436408199
1.0010173117140428
1.000633153862873
1.0010199061558447
1.0006544483649236
1.0010205180862524
1.0005548102475874
1.0010212543824164
1.0005364330656616
1.0010206745695904
1.0007071310500855
1.0010195671612518
1.0008814409740512
1.0010190182478071
1.0009436902204392
1.0010190182478071
1.0008814409740512
1.0010195671612518
1.0007071310500855
1.0010206745695904
1.0005364330656616
1.0010212543824164
1.0005548102475874
1.0010205180862524
1.0006544483649236
1.0010199061558447
1.000633153862873
1.0010173117140428
1.0006230436408199
1.0010125915817401
1.0005527786369237
1.0007123693954054
1.0009967998415237
1.0007124865060411
1.0009498405442874
1.0007125824996046
1.0008958551364215
1.0007126334421621
1.0008331339469108
1.000712629770073
1.0007750430792859
1.000712609277232
1.0007373474259651
1.000712598876206
1.0007204066476452
1.0007125963353347
1.0007161212667273
1.0007125963353347
1.0007204066476452
1.000712598876206
1.0007373474259651
1.000712609277232
1.0007750430792859
1.000712629770073
1.0008331339469108
1.0007126334421621
1.0008958551364215
1.0007125824996046
1.0009498405442874
1.0007124865060411
1.0009967998415237
1.0007123693954054
1.001032231036755
1.0021502224358663
1.0018990066533784
1.0021520977820821
1.001856402126591
1.0021533896217738
1.0017648129730996
1.0021545016632218
1.0016605057868782
1.0021550453969528
1.0017507476631335
1.0021544871630128
1.001946704161063
1.0021538739451399
1.0020790259265049
1.0021536347034854
1.0021182334173595
1.0021536347034854
1.0020790259265049
1.0021538739451399
1.001946704161063
1.0021544871630128
1.0017507476631335
1.0021550453969528
1.0016605057868782
1.0021545016632218
1.0017648129730996
1.0021533896217738
1.001856402126591
1.0021520977820821
1.0018990066533784
1.0021502224358663
1.0019267346633276
1.0033061447674378
1.0035951269319974
1.0033063317758364
1.003566389996021
1.0033065069730085
1.0035293504870055
1.0033066132309387
1.0034754334524436
1.0033066094538532
1.0034071864740928
1.0033065575393203
1.0033511103976893
1.0033065250771909
1.0033218078947044
1.0033065150903493
1.0033137781588102
1.0033065150903493
1.0033218078947044
1.0033065250771909
1.0033511103976893
1.0033065575393203
1.0034071864740928
1.0033066094538532
1.0034754334524436
1.0033066132309387
1.0035293504870055
1.0033065069730085
1.003566389996021
1.0033063317758364
1.0035951269319974
1.0033061447674378
1.0035936025814203
1.0072245175225978
1.0067086412668174
1.0072253801457776
1.0066975572929462
1.0072263598528035
1.0067060480866792
1.0072273209744469
1.0068225219515112
1.0072275232151173
1.0070151141630841
1.0072272046333326
1.0071530821925303
1.0072269649982981
1.007209054937475
1.0072268866573397
1.0072211611491648
1.0072268866573397
1.007209054937475
1.0072269649982981
1.0071530821925303
1.0072272046333326
1.0070151141630841
1.0072275232151173
1.0068225219515112
1.0072273209744469
1.0067060480866792
1.0072263598528035
1.0066975572929462
1.0072253801457776
1.0067086412668174
1.0072245175225978
1.006692850924285
1.0122736189690318
1.0125106380312601
1.0122740102934811
1.0125020797019813
1.0122742761831134
1.0124947010743437
1.0122744211337351
1.0124719315144011
1.0122744147309659
1.0124109173532347
1.0122743096571454
1.0123416767404494
1.0122742339596402
1.0122992639095552
1.0122742082102014
1.0122867178745392
1.0122742082102014
1.0122992639095552
1.0122742339596402
1.0123416767404494
1.0122743096571454
1.0124109173532347
1.0122744147309659
1.0124719315144011
1.0122744211337351
1.0124947010743437
1.0122742761831134
1.0125020797019813
1.0122740102934811
1.0125106380312601
1.0122736189690318
1.0124316508531859
1.0239963798688205
1.02325759226417
1.0239972030239679
1.0234049257094147
1.0239979826509553
1.023606368786353
1.0239985206925806
1.0238433954993604
1.0239985892789891
1.0239922304668088
1.0239984077485049
1.0240261603401923
1.023998272111081
1.0240159155381618
1.0239982255273148
1.0240090900468111
1.0239982255273148
1.0240159155381618
1.023998272111081
1.0240261603401923
1.0239984077485049
1.0239922304668088
1.0239985892789891
1.0238433954993604
1.0239985206925806
1.023606368786353
1.0239979826509553
1.0234049257094147
1.0239972030239679
1.02325759226417
1.0239963798688205
1.0229773699100257
1.0420986244189061
1.0423275443333386
1.0420996479297719
1.0422972174164138
1.0420999926213825
1.0422995038043046
1.0421000850412603
1.0423053197795547
1.0421000508141822
1.0422607661157448
1.0420998748328243
1.0421862217356253
1.0420997367075595
1.0421337296044897
1.0420996864975114
1.0421172538916033
1.0420996864975114
1.0421337296044897
1.0420997367075595
1.0421862217356253
1.0420998748328243
1.0422607661157448
1.0421000508141822
1.0423053197795547
1.0421000850412603
1.0422995038043046
1.0420999926213825
1.0422972174164138
1.0420996479297719
1.0423275443333386
1.0420986244189061
1.0420877279156189
1.0768463583364116
1.0764249450831518
1.0768481188795911
1.0765438691612188
1.0768485748889851
1.0767317957403824
1.0768486891227909
1.0769075958639514
1.0768486572765024
1.0769652267976721
1.0768484469963995
1.0769277301605868
1.0768482753690132
1.0768825789271215
1.0768482116095057
1.0768666221933354
1.0768482116095057
1.0768825789271215
1.0768482753690132
1.0769277301605868
1.0768484469963995
1.0769652267976721
1.0768486572765024
1.0769075958639514
1.0768486891227909
1.0767317957403824
1.0768485748889851
1.0765438691612188
1.0768481188795911
1.0764249450831518
1.0768463583364116
1.0758581800212434
1.1331176981414568
1.133452617984547
1.1331207260052469
1.1333056038210887
1.1331207699486758
1.1332911768479315
1.1331205692185384
1.1333199949680473
1.1331204509109556
1.1332936580721091
1.1331201978580117
1.1332179368067117
1.1331199967852397
1.1331590936287448
1.1331199223712669
1.1331401114116915
1.1331199223712669
1.1331590936287448
1.1331199967852397
1.1332179368067117
1.1331201978580117
1.1332936580721091
1.1331204509109556
1.1333199949680473
1.1331205692185384
1.1332911768479315
1.1331207699486758
1.1333056038210887
1.1331207260052469
1.133452617984547
1.1331176981414568
1.1329642401978293
1.2231117657866506
1.2231424509402002
1.223116014212527
1.2230576337764423
1.2231155444897386
1.2231474423107866
1.2231151649434118
1.2232622795284001
1.2231150315162107
1.2232779723467369
1.2231147567822258
1.2232121375446867
1.2231145350234174
1.2231536233310338
1.2231144535336755
1.2231343864182793
1.2231144535336755
1.2231536233310338
1.2231145350234174
1.2232121375446867
1.2231147567822258
1.2232779723467369
1.2231150315162107
1.2232622795284001
1.2231151649434118
1.2231474423107866
1.2231155444897386
1.2230576337764423
1.223116014212527
1.2231424509402002
1.2231117657866506
1.2227001388253087
1.3476546636272044
1.3478694617826688
1.3476588660877487
1.3477021619230274
1.3476578190379502
1.3477365312722041
1.3476573336135667
1.3478285999831026
1.347657219151589
1.3478316813133198
1.3476569377128991
1.3477567044246155
1.3476567090250071
1.3476949687127537
1.3476566271853079
1.347675379826323
1.3476566271853079
1.3476949687127537
1.3476567090250071
1.3477567044246155
1.3476569377128991
1.3478316813133198
1.347657219151589
1.3478285999831026
1.3476573336135667
1.3477365312722041
1.3476578190379502
1.3477021619230274
1.3476588660877487
1.3478694617826688
1.3476546636272044
1.3486451353339457
1.497189589071755
1.4970122232839453
1.4971922572660874
1.4970360598441976
1.4971910479273471
1.497180737467722
1.4971907005326128
1.4973375969270877
1.497190670058228
1.4973593056788128
1.4971904142546282
1.4972853892260358
1.4971902021710253
1.4972248869034288
1.4971901289767997
1.4972063001778868
1.4971901289767997
1.4972248869034288
1.4971902021710253
1.4972853892260358
1.4971904142546282
1.4973593056788128
1.497190670058228
1.4973375969270877
1.4971907005326128
1.497180737467722
1.4971910479273471
1.4970360598441976
1.4971922572660874
1.4970122232839453
1.497189589071755
1.5
1.6466916380805261
1.6463529147197089
1.6466923442115111
1.646496367921882
1.6466918403150903
1.6466715529897396