# vtk DataFile Version 3.0
Euler density step 448
ASCII
DATASET STRUCTURED_POINTS
DIMENSIONS 32 32 32
ORIGIN 0 0 0
SPACING 0.3125 0.3125 0.3125
POINT_DATA 32768
SCALARS density double 1
LOOKUP_TABLE default
1.0084042236699746
1.0019760712196184
1.0084307400898158
1.0040622810093405
1.0084383997350232
1.0056260146293563
1.0084372162428799
1.0069569776688172
1.0084325103161174
1.007867178523578
1.0084296624901361
1.0082762725441061
1.0084288571515871
1.0083980930734135
1.0084287214618823
1.0084197703525035
1.0084287214618823
1.0083980930734135
1.0084288571515871
1.0082762725441061
1.0084296624901361
1.007867178523578
1.0084325103161174
1.0069569776688172
1.0084372162428799
1.0056260146293563
1.0084383997350232
1.0040622810093405
1.0084307400898158
1.0019760712196184
1.0084042236699746
1.0000453978687025
0.99998664804792714
1.0000544755276866
0.99998654881990023
1.0000239237782331
0.99998651841619945
1.000003534624283
0.99998652211614436
0.99999308133604425
0.9999865333531468
0.99998864788095043
0.99998654039080548
0.99998708368061695
0.99998654265172604
0.99998665245586493
0.9999865430902849
0.99998657607215513
0.9999865430902849
0.99998665245586493
0.99998654265172604
0.99998708368061695
0.99998654039080548
0.99998864788095043
0.9999865333531468
0.99999308133604425
0.99998652211614436
1.000003534624283
0.99998651841619945
1.0000239237782331
0.99998654881990023
1.0000544755276866
0.99998664804792714
1.0000848110417238
1.0077343072520182
1.0022115501004227
1.0077491697279102
1.0038902184319569
1.0077568280186506
1.005262470124419
1.0077570745476367
1.0064964633648041
1.0077539207968529
1.0073046271609367
1.0077521100116364
1.0076394681101144
1.0077516483901572
1.007730848752254
1.0077515780381405
1.0077459690115016
1.0077515780381405
1.007730848752254
1.0077516483901572
1.0076394681101144
1.0077521100116364
1.0073046271609367
1.0077539207968529
1.0064964633648041
1.0077570745476367
1.005262470124419
1.0077568280186506
1.0038902184319569
1.0077491697279102
1.0022115501004227
1.0077343072520182
1.0001584362191025
1.0000263001895593
1.000204370998776
1.0000263048854394
1.0001252791411956
1.0000262889616969
1.0000707135237501
1.0000262803140969
1.0000420663554999
1.0000262825757775
1.0000306695989778
1.0000262856780646
1.0000272317741103
1.0000262867381642
1.0000264474262488
1.0000262869338696
1.0000263286105442
1.0000262869338696
1.0000264474262488
1.0000262867381642
1.0000272317741103
1.0000262856780646
1.0000306695989778
1.0000262825757775
1.0000420663554999
1.0000262803140969
1.0000707135237501
1.0000262889616969
1.0001252791411956
1.0000263048854394
1.000204370998776
1.0000263001895593
1.0002959571135133
1.0064017647700867
1.0019915352838604
1.0064086559596932
1.0032759833656208
1.0064137766011494
1.0045174925953042
1.0064141717174482
1.0055754348224992
1.0064127688280418
1.006154761532039
1.0064120894632607
1.0063557965677259
1.0064119412687049
1.0064028086628227
1.0064119212821927
1.006409720385222
1.0064119212821927
1.0064028086628227
1.0064119412687049
1.0063557965677259
1.0064120894632607
1.006154761532039
1.0064127688280418
1.0055754348224992
1.0064141717174482
1.0045174925953042
1.0064137766011494
1.0032759833656208
1.0064086559596932
1.0019915352838604
1.0064017647700867
1.0005527786369237
1.0004239863334252
1.0008330653140558
1.0004240690543726
1.0006579689125052
1.0004241067092619
1.0005319646905591
1.0004241036663217
1.0004623268761519
1.0004240982756194
1.0004343170427581
1.0004240969756568
1.0004261687777105
1.0004240968410569
1.0004244245106313
1.0004240968363496
1.0004241764309671
1.0004240968363496
1.0004244245106313
1.0004240968410569
1.0004261687777105
1.0004240969756568
1.0004343170427581
1.0004240982756194
1.0004623268761519
1.0004241036663217
1.0005319646905591
1.0004241067092619
1.0006579689125052
1.0004240690543726
1.0008330653140558
1.0004239863334252
1.001032231036755
1.0058457642658638
1.0029809788544823
1.0058487641328657
1.003976993321221
1.0058511238968153
1.004891151729733
1.0058513739466433
1.0055017567984335
1.0058510344576863
1.005761795525048
1.0058508902645016
1.0058345005043725
1.0058508622361597
1.0058486054332643
1.005850858772199
1.0058503914815926
1.005850858772199
1.0058486054332643
1.0058508622361597
1.0058345005043725
1.0058508902645016
1.005761795525048
1.0058510344576863
1.0055017567984335
1.0058513739466433
1.004891151729733
1.0058511238968153
1.003976993321221
1.0058487641328657
1.0029809788544823
1.0058457642658638
1.0019267346633276
1.0023976916300781
1.0032300151159756
1.0023979380671511
1.002897540129869
1.0023980868170534
1.0026421566986266
1.0023980904435277
1.0024889180006333
1.0023980684867273
1.0024232073782193
1.0023980603887994
1.0024032787378785
1.0023980589099624
1.0023988984047032
1.0023980587341539
1.0023982652930719
1.0023980587341539
1.0023988984047032
1.0023980589099624
1.0024032787378785
1.0023980603887994
1.0024232073782193
1.0023980684867273
1.0024889180006333
1.0023980904435277
1.0026421566986266
1.0023980868170534
1.002897540129869
1.0023979380671511
1.0032300151159756
1.0023976916300781
1.0035936025814203
1.0078364485354505
1.0071306477077155
1.0078377287302471
1.007501812617462
1.0078386200308809
1.0077507980235616
1.0078387343850357
1.0078392963408531
1.0078386630922809
1.0078473204470246
1.0078386318224213
1.0078418968394955
1.0078386257505241
1.0078393423306902
1.0078386250069093
1.0078388369601228
1.0078386250069093
1.0078393423306902
1.0078386257505241
1.0078418968394955
1.0078386318224213
1.0078473204470246
1.0078386630922809
1.0078392963408531
1.0078387343850357
1.0077507980235616
1.0078386200308809
1.007501812617462
1.0078377287302471
1.0071306477077155
1.0078364485354505
1.006692850924285
1.0104144430249893
1.0118680065517727
1.0104151636845611
1.011324383622912
1.0104155881837813
1.0108850578496695
1.010415573264168
1.0105999552823071
1.0104154816173934
1.0104688519710954
1.0104154470978928
1.0104269246925806
1.0104154405576002
1.0104173397920728
1.0104154397549276
1.0104159172045337
1.0104154397549276
1.0104173397920728
1.0104154405576002
1.0104269246925806
1.0104154470978928
1.0104688519710954
1.0104154816173934
1.0105999552823071
1.010415573264168
1.0108850578496695
1.0104155881837813
1.011324383622912
1.0104151636845611
1.0118680065517727
1.0104144430249893
1.0124316508531859
1.021537233280797
1.0227134345916749
1.0215385707691345
1.0223784976450179
1.0215393285085275
1.0220368756611542
1.0215393057563209
1.021755914680851
1.0215391405581735
1.021606240261788
1.0215390763452452
1.0215541504643484
1.0215390638864812
1.0215416311112571
1.0215390623330092
1.0215397197275826
1.0215390623330092
1.0215416311112571
1.0215390638864812
1.0215541504643484
1.0215390763452452
1.021606240261788
1.0215391405581735
1.021755914680851
1.0215393057563209
1.0220368756611542
1.0215393285085275
1.0223784976450179
1.0215385707691345
1.0227134345916749
1.021537233280797
1.0229773699100257
1.039071557212923
1.0413168820315728
1.0390735746923567
1.040507072880777
1.039074538740598
1.0398456611678908
1.0390743835554732
1.0393904358764277
1.0390740773865048
1.0391686975859449
1.0390739639525397
1.0390948016527681
1.0390739422038608
1.0390774453231437
1.0390739394982658
1.0390748285941529
1.0390739394982658
1.0390774453231437
1.0390739422038608
1.0390948016527681
1.0390739639525397
1.0391686975859449
1.0390740773865048
1.0393904358764277
1.0390743835554732
1.0398456611678908
1.039074538740598
1.040507072880777
1.0390735746923567
1.0413168820315728
1.039071557212923
1.0420877279156189
1.0725207887942894
1.0750940837338834
1.0725241533440029
1.0741959706198134
1.0725254592535169
1.0734503435735918
1.0725251123562101
1.0729126788079939
1.0725246031175186
1.0726420413528293
1.0725244186698699
1.0725503853123002
1.0725243835252634
1.0725287415679055
1.0725243791678938
1.0725254797526906
1.0725243791678938
1.0725287415679055
1.0725243835252634
1.0725503853123002
1.0725244186698699
1.0726420413528293
1.0725246031175186
1.0729126788079939
1.0725251123562101
1.0734503435735918
1.0725254592535169
1.0741959706198134
1.0725241533440029
1.0750940837338834
1.0725207887942894
1.0758581800212434
1.1286227970714822
1.1319341010972184
1.1286284363784498
1.1307140124727746
1.1286300081322183
1.1297680087103472
1.1286292809849188
1.1291028548245414
1.128628469525943
1.1287707528150583
1.1286281883392584
1.1286592659709536
1.1286281359524595
1.1286332683149962
1.1286281295602114
1.1286294028390635
1.1286281295602114
1.1286332683149962
1.1286281359524595
1.1286592659709536
1.1286281883392584
1.1287707528150583
1.128628469525943
1.1291028548245414
1.1286292809849188
1.1297680087103472
1.1286300081322183
1.1307140124727746
1.1286284363784498
1.1319341010972184
1.1286227970714822
1.1329642401978293
1.2175203166913837
1.22144846953569
1.2175293725471839
1.2199788953735651
1.2175309393626554
1.2188729086809309
1.2175295899677527
1.2180871138982743
1.2175283740239471
1.2176938022462711
1.2175279752685695
1.21756335018346
1.2175279036519073
1.2175335841488626
1.2175278951716633
1.2175292619258808
1.2175278951716633
1.2175335841488626
1.2175279036519073
1.21756335018346
1.2175279752685695
1.2176938022462711
1.2175283740239471
1.2180871138982743
1.2175295899677527
1.2188729086809309
1.2175309393626554
1.2199788953735651
1.2175293725471839
1.22144846953569
1.2175203166913837
1.2227001388253087
1.3422279246817161
1.346796098239688
1.3422411357116444
1.3450736653399495
1.3422422139102463
1.3437978800382095
1.3422399625444108
1.3428801381180375
1.3422382579854752
1.3424237249983189
1.3422377359737268
1.3422760528716817
1.3422376470719091
1.3422435426856529
1.3422376370141587
1.3422389922278344
1.3422376370141587
1.3422435426856529
1.3422376470719091
1.3422760528716817
1.3422377359737268
1.3424237249983189
1.3422382579854752
1.3428801381180375
1.3422399625444108
1.3437978800382095
1.3422422139102463
1.3450736653399495
1.3422411357116444
1.346796098239688
1.3422279246817161
1.3486451353339457
1.4919534842689983
1.4969473571711487
1.491970548292326
1.4951154527120534
1.491970544939824
1.4937142667352943
1.4919672128634633
1.4926747305854347
1.4919650231930324
1.4921631652865326
1.4919644031206649
1.4920034610683344
1.4919643044642945
1.4919699827676185
1.4919642939675837
1.4919655231493907
1.4919642939675837
1.4919699827676185
1.4919643044642945
1.4920034610683344
1.4919644031206649
1.4921631652865326
1.4919650231930324
1.4926747305854347
1.4919672128634633
1.4937142667352943
1.491970544939824
1.4951154527120534
1.491970548292326
1.4969473571711487
1.4919534842689983
1.5
1.6414852638410589
1.6466832255851374
1.6415047204380542
1.644870207358623
1.641503652400951
1.6433832103882531
1.6414994181685709
1.6422428544328458
1.6414969197334104
1.6416953786457795
1.6414962725182971
1.6415330861397723
1.6414961778783252
1.6415011709556895
1.6414961685603999
1.6414971749977327
1.6414961685603999
1.6415011709556895
1.6414961778783252
1.6415330861397723
1.6414962725182971
1.6416953786457795
1.6414969197334104
1.6422428544328458
1.6414994181685709
1.6433832103882531
1.641503652400951
1.644870207358623
1.6415047204380542
1.6466832255851374
1.6414852638410589
1.6513548646660543
1.7663993214942006
1.7716357181911209
1.7664186996090712
1.7699098976926333
1.7664175689909813
1.7683516169687754
1.7664130599958487
1.767143904096883
1.7664106107701558
1.7665935924889913
1.7664100355976109
1.7664416253300348
1.7664099589816478
1.7664139294674863
1.7664099520392962
1.766410694371743
1.7664099520392962
1.7664139294674863
1.7664099589816478
1.7664416253300348
1.7664100355976109
1.7665935924889913
1.7664106107701558
1.767143904096883
1.7664130599958487
1.7683516169687754
1.7664175689909813
1.7699098976926333
1.7664186996090712
1.7716357181911209
1.7663993214942006
1.7772998611746911
1.8562337015460331
1.8614860953638555
1.8562510511937493
1.859776214424377
1.856250584560208
1.8581264155359776
1.85624652014668
1.8569087842453182
1.8562444833082206
1.8563982956450056
1.856244050754992
1.8562686785881255
1.8562439981590539
1.8562468707987752
1.8562439937531638
1.8562444938404303
1.8562439937531638
1.8562468707987752
1.8562439981590539
1.8562686785881255
1.856244050754992
1.8563982956450056
1.8562444833082206
1.8569087842453182
1.85624652014668
1.8581264155359776
1.856250584560208
1.859776214424377
1.8562510511937493
1.8614860953638555
1.8562337015460331
1.8670357598021707
1.9144490315029501
1.9195189677328766
1.9144629821066161
1.9178211197031718
1.9144631555668552
1.9161421683626467
1.9144600436568919
1.915008576203828
1.9144586047050018
1.9145767251190473
1.9144583265399542
1.9144759500756787
1.9144582953684994
1.9144602181916226
1.9144582929311866
1.9144586075130894
1.9144582929311866
1.9144602181916226
1.9144582953684994
1.9144759500756787
1.9144583265399542
1.9145767251190473
1.9144586047050018
1.915008576203828
1.9144600436568919
1.9161421683626467
1.9144631555668552
1.9178211197031718
1.9144629821066161
1.9195189677328766
1.9144490315029501
1.9241418199787566
1.9492945098998622
1.9541305199881793
1.9493046655078659
1.9523333597435804
1.9493051385248499
1.9506963834596407
1.9493030820096573
1.9497219753614323
1.9493022031096132
1.9493862036323044
1.9493020469064386
1.9493138217573427
1.9493020305849591
1.9493032448880261
1.9493020293808876
1.9493022182014996
1.9493020293808876
1.9493032448880261
1.9493020305849591
1.9493138217573427
1.9493020469064386
1.9493862036323044
1.9493022031096132
1.9497219753614323
1.9493030820096573
1.9506963834596407
1.9493051385248499
1.9523333597435804
1.9493046655078659
1.9541305199881793
1.9492945098998622
1.9579122720843811
1.9707200074334268
1.974474355974601
1.9707265525673945
1.9730513482441878
1.9707271080099955
1.9717453499913427
1.9707259637607271
1.9710159574278983
1.9707254986586991
1.9707807042982308
1.9707254210357474
1.9707328079294302
1.9707254133471843
1.9707261438465611
1.9707254128054024
1.9707255222172164
1.9707254128054024
1.9707261438465611
1.9707254133471843
1.9707328079294302
1.9707254210357474
1.9707807042982308
1.9707254986586991
1.9710159574278983
1.9707259637607271
1.9717453499913427
1.9707271080099955
1.9730513482441878
1.9707265525673945
1.974474355974601
1.9707200074334268
1.9770226300899743
1.9818352874878866
1.9852719831846322
1.9818392096346933
1.9837495141084514
1.9818396010651422
1.9825931802959365
1.9818390034334772
1.9820370951584636
1.9818387771335928
1.9818742858583216
1.981838741764969
1.9818432761679543
1.9818387384351144
1.9818391701263216
1.9818387382098543
1.9818388008671104
1.9818387382098543
1.9818391701263216
1.9818387384351144
1.9818432761679543
1.981838741764969
1.9818742858583216
1.9818387771335928
1.9820370951584636
1.9818390034334772
1.9825931802959365
1.9818396010651422
1.9837495141084514
1.9818392096346933
1.9852719831846322
1.9818352874878866
1.9875683491468141
1.9917084412266424
1.9926597012592664
1.9917110366221957
1.992349789930917
1.9917115121665641
1.9920066194975268
1.9917112763505471
1.9917968586332027
1.9917111772160114
1.991727442197806
1.9917111614327194
1.9917133130901565
1.9917111599352624
1.991711369276739
1.991711159834503
1.9917111906198177
1.991711159834503
1.991711369276739
1.9917111599352624
1.9917133130901565
1.9917111614327194
1.991727442197806
1.9917111772160114
1.9917968586332027
1.9917112763505471
1.9920066194975268
1.9917115121665641
1.992349789930917
1.9917110366221957
1.9926597012592664
1.9917084412266424
1.993307149075715
1.9933496246183577
1.9951771704212535
1.9933506754836761
1.994269972597239
1.9933508131174362
1.9936762250793401
1.993350701524425
1.9934288101831754
1.9933506625163804
1.9933636936912291
1.9933506569705823
1.9933522290954782
1.9933506564885481
1.9933507994227251
1.9933506564581065
1.9933506764406814
1.9933506564581065
1.9933507994227251
1.9933506564885481
1.9933522290954782
1.9933506569705823
1.9933636936912291
1.9933506625163804
1.9934288101831754
1.993350701524425
1.9936762250793401
1.9933508131174362
1.994269972597239
1.9933506754836761
1.9951771704212535
1.9933496246183577
1.9964063974185799
2.0009543548482376
1.9987967460655611
2.0009581385449939
1.9997032846345943
2.0009588585380818
2.0004913633487913
2.0009584310783257
2.0008490961340955
2.0009582601279829
2.0009412796963759
2.0009582334466378
2.0009563766719736
2.0009582309015079
2.0009580806162162
2.0009582307270639
2.0009582122295901
2.0009582307270639
2.0009580806162162
2.0009582309015079
2.0009563766719736
2.0009582334466378
2.0009412796963759
2.0009582601279829
2.0008490961340955
2.0009584310783257
2.0004913633487913
2.0009588585380818
1.9997032846345943
2.0009581385449939
1.9987967460655611
2.0009543548482376
1.9980732653366724
1.9976948450130663
1.9984460359111309
1.9976950364008483
1.9980549708079294
1.997695056093731
1.9978193191963753
1.9976950506529687
1.9977247623970202
1.9976950513398752
1.9977000368363502
1.9976950518946428
1.9976956584219547
1.9976950519889169
1.9976951075719485
1.9976950519979195
1.9976950598155228
1.9976950519979195
1.9976951075719485
1.9976950519889169
1.9976956584219547
1.9976950518946428
1.9977000368363502
1.9976950513398752
1.9977247623970202
1.9976950506529687
1.9978193191963753
1.997695056093731
1.9980549708079294
1.9976950364008483
1.9984460359111309
1.9976948450130663
1.9989677689632452
2.0047944513065832
2.0009161622734815
2.0048056553320324
2.0022041652207165
2.0048063670859833
2.0035936911169716
2.0048041213067318
2.0044511600211417
2.0048032110072183
2.0047364233891041
2.0048030574614422
2.0047943155972683
2.0048030420263361
2.0048022044437661
2.0048030409230009
2.0048029200811719
2.0048030409230009
2.0048022044437661
2.0048030420263361
2.0047943155972683
2.0048030574614422
2.0047364233891041
2.0048032110072183
2.0044511600211417
2.0048041213067318
2.0035936911169716
2.0048063670859833
2.0022041652207165
2.0048056553320324
2.0009161622734815
2.0047944513065832
1.9994472213630763
1.9993048252449466
1.9995511803667982
1.9993047524133651
1.9994188479443562
1.9993047549955483
1.9993458811241998
1.9993047775188368
1.9993159501022097
1.999304790238728
1.9993069907690222
1.9993047932924353
1.999305107030799
1.9993047937077641
1.999304826967744
1.9993047937452779
1.9993047990553456
1.9993047937452779
1.999304826967744
1.9993047937077641
1.999305107030799
1.9993047932924353
1.9993069907690222
1.999304790238728
1.9993159501022097
1.9993047775188368
1.9993458811241998
1.9993047549955483
1.9994188479443562
1.9993047524133651
1.9995511803667982
1.9993048252449466
1.999704042886487
2.007358822760748
2.0026092422779138
2.0073823493349812
2.0042962901932171
2.0073782641866051
2.0058005854945455
2.0073726969342722
2.0068480605216346
2.0073704857181811
2.0072572421239228
2.0073700706877311
2.0073533406309663
2.0073700243972885
2.0073682331660092
2.007370020799109
2.0073697352966646
2.007370020799109
2.0073682331660092
2.0073700243972885
2.0073533406309663
2.0073700706877311
2.0072572421239228
2.0073704857181811
2.0068480605216346
2.0073726969342722
2.0058005854945455
2.0073782641866051
2.0042962901932171
2.0073823493349812
2.0026092422779138
2.007358822760748
1.9998415637808975
1.9999151889582765
1.9999151889582765
1.9999151889582765
1.9999151889582765
1.9999151889582765
1.9999151889582765
1.9999151889582765
1.9999151889582765
1.9999151889582765
1.9999151889582765
1.9999151889582765
1.9999151889582765
1.9999151889582765
1.9999151889582765
1.9999151889582765
1.9999151889582765
1.9999151889582765
1.9999151889582765
1.9999151889582765
1.9999151889582765
1.9999151889582765
1.9999151889582765
1.9999151889582765
1.9999151889582765
1.9999151889582765
1.9999151889582765
1.9999151889582765
1.9999151889582765
1.9999151889582765
1.9999151889582765
1.9999151889582765
1.9999151889582765
1.0030390032260674
1.0013618807567495
1.0030578491126494
1.0019204726624793
1.0030579264287147
1.0021464965704594
1.0030567981058787
1.0023785127109202
1.0030547015777005
1.0027045707072673
1.0030529191290882
1.002932911323589
1.0030522427928839
1.0030231188087211
1.0030520984614573
1.0030422659846518
1.0030520984614573
1.0030231188087211
1.0030522427928839
1.002932911323589
1.0030529191290882
1.0027045707072673
1.0030547015777005
1.0023785127109202
1.0030567981058787
1.0021464965704594
1.0030579264287147
1.0019204726624793
1.0030578491126494
1.0013618807567495
1.0030390032260674
1.0000453978687025
1.0000317321589534
1.0000732833087602
1.0000316443937523
1.0000560451045268
1.0000316282443404
1.0000431494533668
1.0000316367500197
1.0000360364753185
1.0000316454068208
1.0000330544280802
1.0000316504649389
1.0000320279464907
1.0000316522923141
1.000031735730903
1.0000316527028479
1.000031680476825
1.0000316527028479
1.000031735730903
1.0000316522923141
1.0000320279464907
1.0000316504649389
1.0000330544280802
1.0000316454068208
1.0000360364753185
1.0000316367500197
1.0000431494533668
1.0000316282443404
1.0000560451045268
1.0000316443937523
1.0000732833087602
1.0000317321589534
1.0000848110417238
1.0019983801142736
1.0006803996773006
1.0020073058591081
1.0010250614502667
1.0020098995937026
1.0011559443997069
1.0020103554695439
1.0013808194774416
1.0020089220051516
1.0017059292069215
1.002007659298473
1.0019123110421937
1.0020072267853444
1.0019860499509314
1.0020071435402527
1.002000532109701
1.0020071435402527
1.0019860499509314
1.0020072267853444
1.0019123110421937
1.002007659298473
1.0017059292069215
1.0020089220051516
1.0013808194774416
1.0020103554695439
1.0011559443997069
1.0020098995937026
1.0010250614502667
1.0020073058591081
1.0006803996773006
1.0019983801142736
1.0001584362191025
1.0001626696731702
1.0002590707088599
1.0001626959791128
1.0002218503830891
1.0001626927374432
1.000191388025103
1.0001626871161837
1.0001733622333919
1.0001626854004482
1.000165778264829
1.0001626860884245
1.0001633943806754
1.0001626866009647
1.000162817527678
1.0001626867338724
1.0001627240520512
1.0001626867338724
1.000162817527678
1.0001626866009647
1.0001633943806754
1.0001626860884245
1.000165778264829
1.0001626854004482
1.0001733622333919
1.0001626871161837
1.000191388025103
1.0001626927374432
1.0002218503830891
1.0001626959791128
1.0002590707088599
1.0001626696731702
1.0002959571135133
1.0017395508543645
1.0007218239369946
1.0017428612062012
1.0008169243526808
1.0017451807986142
1.0009165597763825
1.0017457357654802
1.0012290569112743
1.0017449147359092
1.0015393268957005
1.0017443299768942
1.0016896280850369
1.0017441636709377
1.001733686570307
1.0017441358629569
1.0017412387546663
1.0017441358629569
1.001733686570307
1.0017441636709377
1.0016896280850369
1.0017443299768942
1.0015393268957005
1.0017449147359092
1.0012290569112743
1.0017457357654802
1.0009165597763825
1.0017451807986142
1.0008169243526808
1.0017428612062012
1.0007218239369946
1.0017395508543645
1.0005527786369237
1.0007697764442438
1.0009642729385178
1.0007698299981505
1.0008940178706982
1.0007698571785102
1.0008353726674675
1.0007698553767035
1.0007966064144507
1.0007698498087598
1.0007780501745824
1.0007698479851894
1.0007717363415729
1.0007698476980504
1.0007701844380794
1.0007698476723068
1.0007699386092705
1.0007698476723068
1.0007701844380794
1.0007698476980504
1.0007717363415729
1.0007698479851894
1.0007780501745824
1.0007698498087598
1.0007966064144507
1.0007698553767035
1.0008353726674675
1.0007698571785102
1.0008940178706982
1.0007698299981505
1.0009642729385178
1.0007697764442438
1.001032231036755
1.003087123778605
1.0020830163111754
1.0030885528270232
1.0022335005160479
1.0030899266030315
1.0024974768702344
1.0030901860482981
1.0028114707290463
1.0030899072254451
1.0030025024981302
1.0030897483085337
1.0030706829736344
1.0030897097726694
1.0030866451026517
1.0030897040050928
1.0030889743834315
1.0030897040050928
1.0030866451026517
1.0030897097726694
1.0030706829736344
1.0030897483085337
1.0030025024981302
1.0030899072254451
1.0028114707290463
1.0030901860482981
1.0024974768702344
1.0030899266030315
1.0022335005160479
1.0030885528270232
1.0020830163111754
1.003087123778605
1.0019267346633276
1.0031991406072243
1.0035170099602193
1.0031992639353025
1.0034206727546908
1.0031993440737876
1.003330783982139
1.00319934794842
1.003258854475819
1.0031993324606612
1.003218905794738
1.0031993254526348
1.0032040333371328
1.0031993239185732
1.0032001861269875
1.0031993237046175
1.0031995602612505
1.0031993237046175
1.0032001861269875
1.0031993239185732
1.0032040333371328
1.0031993254526348
1.003218905794738
1.0031993324606612
1.003258854475819
1.00319934794842
1.003330783982139
1.0031993440737876
1.0034206727546908
1.0031992639353025
1.0035170099602193
1.0031991406072243
1.0035936025814203
1.007561218346265
1.0069513757494837
1.0075619269995324
1.007173319947118
1.0075625272625972
1.0073909328325887
1.0075626256438885
1.0075188805752491
1.0075625567863056
1.0075582374338405
1.0075625205562997
1.0075634135164633
1.0075625122578082
1.0075629526161789
1.0075625110651967
1.0075626872745107
1.0075625110651967
1.0075629526161789
1.0075625122578082
1.0075634135164633
1.0075625205562997
1.0075582374338405
1.0075625567863056
1.0075188805752491
1.0075626256438885
1.0073909328325887
1.0075625272625972
1.007173319947118
1.0075619269995324
1.0069513757494837
1.007561218346265
1.006692850924285
1.0119596417392593
1.0123957171613143
1.0119599470145004
1.0122848171746108
1.0119601263478768
1.0121739853297886
1.0119601264755389
1.0120667639913861
1.0119600745323933
1.011997823746124
1.0119600495415852
1.0119696285834585
1.0119600437124592
1.0119618699817858
1.011960042857261
1.0119605586154101
1.011960042857261
1.0119618699817858
1.0119600437124592
1.0119696285834585
1.0119600495415852
1.011997823746124
1.0119600745323933
1.0120667639913861
1.0119601264755389
1.0121739853297886
1.0119601263478768
1.0122848171746108
1.0119599470145004
1.0123957171613143
1.0119596417392593
1.0124316508531859
1.023196759336001
1.0232148774055381
1.0231973564033303
1.023300915274342
1.0231976996100363
1.0233395054709673
1.0231977127665932
1.0232964684021044
1.023197625959958
1.0232388623761934
1.0231975820618997
1.0232090287867908
1.0231975714919843
1.0231998740784725
1.0231975699070226
1.0231982413692724
1.0231975699070226
1.0231998740784725
1.0231975714919843
1.0232090287867908
1.0231975820618997
1.0232388623761934
1.023197625959958
1.0232964684021044
1.0231977127665932
1.0233395054709673
1.0231976996100363
1.023300915274342
1.0231973564033303
1.0232148774055381
1.023196759336001
1.0229773699100257
1.041628137513223
1.0421708395162279
1.0416289183743552
1.0420330221518996
1.0416292129538383
1.0419168504791603
1.0416291671598188
1.0417857809719211
1.0416290274409521
1.041688223154724
1.041628959495289
1.0416446578441636
1.0416289430723729
1.0416320248897872
1.0416289405889603
1.0416298267237849
1.0416289405889603
1.0416320248897872
1.0416289430723729
1.0416446578441636
1.041628959495289
1.041688223154724
1.0416290274409521
1.0417857809719211
1.0416291671598188
1.0419168504791603
1.0416292129538383
1.0420330221518996
1.0416289183743552
1.0421708395162279
1.041628137513223
1.0420877279156189
1.0756346891940936
1.0761047686655483
1.0756359595940164
1.0760040889942368
1.0756362718921255
1.0759297733524946
1.0756361683738882
1.0758089300027398
1.075635961539261
1.075703928828516
1.0756358619228075
1.0756542218178946
1.075635837700365
1.0756394653234589
1.0756358340181467
1.0756368767530293
1.0756358340181467
1.0756394653234589
1.075635837700365
1.0756542218178946
1.0756358619228075
1.075703928828516
1.075635961539261
1.0758089300027398
1.0756361683738882
1.0759297733524946
1.0756362718921255
1.0760040889942368
1.0756359595940164
1.0761047686655483
1.0756346891940936
1.0758581800212434
1.1324203694608626
1.1331193976489666
1.132422375363596
1.1328898680588224
1.132422571465038
1.1327664446070365
1.132422356313008
1.1326207454458859
1.1324220646044794
1.1324995154461652
1.1324219288573691
1.1324426482077499
1.13242189620342
1.1324259319100094
1.1324218912779132
1.1324230322098559
1.1324218912779132
1.1324259319100094
1.13242189620342
1.1324426482077499
1.1324219288573691
1.1324995154461652
1.1324220646044794
1.1326207454458859
1.132422356313008
1.1327664446070365
1.132422571465038
1.1328898680588224
1.132422375363596
1.1331193976489666
1.1324203694608626
1.1329642401978293
1.2218426683571724
1.2225741566746982
1.2218454494889663
1.2223151992105716
1.2218453989999076
1.2222049149068837
1.2218450513592483
1.2220582891563252
1.2218446733379058
1.2219279562243508
1.2218445038049013
1.2218664285690293
1.2218444639934452
1.2218486232267225
1.2218444581199184
1.2218455989284256
1.2218444581199184
1.2218486232267225
1.2218444639934452
1.2218664285690293
1.2218445038049013
1.2219279562243508
1.2218446733379058
1.2220582891563252
1.2218450513592483
1.2222049149068837
1.2218453989999076
1.2223151992105716
1.2218454494889663
1.2225741566746982
1.2218426683571724
1.2227001388253087
1.3468005866164496
1.3475376318246053
1.3468037167940696
1.3472768650515978
1.3468033578554512
1.3471794355726492
1.3468028926531959
1.3470273142956941
1.3468024470888926
1.3468882948978995
1.3468022559004291
1.3468240685586008
1.3468022127309178
1.3468061651747247
1.3468022065975456
1.3468032385983906
1.3468022065975456
1.3468061651747247
1.3468022127309178
1.3468240685586008
1.3468022559004291
1.3468882948978995
1.3468024470888926
1.3470273142956941
1.3468028926531959
1.3471794355726492
1.3468033578554512
1.3472768650515978
1.3468037167940696
1.3475376318246053
1.3468005866164496
1.3486451353339457
1.4966722349559292
1.4972994432311106
1.4966751143429875
1.4971213475832934
1.4966745998204734
1.4970550889636447
1.4966741021073062
1.4969008363425897
1.4966736389493671
1.4967570846163487
1.4966734493381717
1.4966934859334087
1.496673408918447
1.4966768005985491
1.4966734035076759
1.4966742289962485
1.4966734035076759
1.4966768005985491
1.496673408918447
1.4966934859334087
1.4966734493381717
1.4967570846163487
1.4966736389493671
1.4969008363425897
1.4966741021073062
1.4970550889636447
1.4966745998204734
1.4971213475832934
1.4966751143429875
1.4972994432311106
1.4966722349559292
1.5
1.6468407181887113
1.6473565328557358
1.6468428301335511
1.6472654056290954
1.6468426224791699
1.6472254406456048
1.6468422362952317
1.6470619580612613
1.6468418295278264