# vtk DataFile Version 3.0
Euler density step 432
ASCII
DATASET STRUCTURED_POINTS
DIMENSIONS 32 32 32
ORIGIN 0 0 0
SPACING 0.3125 0.3125 0.3125
POINT_DATA 32768
SCALARS density double 1
LOOKUP_TABLE default
1.0082165821938627
1.0019962334264256
1.0082411856447988
1.0040865164205881
1.0082480664572153
1.0056726832911453
1.0082461787022408
1.0069836651657831
1.008241755716222
1.0078003431928926
1.0082395340470478
1.0081303859957036
1.0082389911274952
1.0082190901292591
1.0082389099734761
1.0082336103899883
1.0082389099734761
1.0082190901292591
1.0082389911274952
1.0081303859957036
1.0082395340470478
1.0078003431928926
1.008241755716222
1.0069836651657831
1.0082461787022408
1.0056726832911453
1.0082480664572153
1.0040865164205881
1.0082411856447988
1.0019962334264256
1.0082165821938627
1.0000453978687025
1.000007285863068
1.0000610101329117
1.0000071996068221
1.0000362052135312
1.0000071734016112
1.0000201047423414
1.0000071775668464
1.0000120546045708
1.0000071875584688
1.0000086976463276
1.0000071929801162
1.0000075573573262
1.0000071944989184
1.0000072624970384
1.0000071947593105
1.0000072135904579
1.0000071947593105
1.0000072624970384
1.0000071944989184
1.0000075573573262
1.0000071929801162
1.0000086976463276
1.0000071875584688
1.0000120546045708
1.0000071775668464
1.0000201047423414
1.0000071734016112
1.0000362052135312
1.0000071996068221
1.0000610101329117
1.000007285863068
1.0000848110417238
1.0075333919738831
1.0022201184671573
1.0075470824583728
1.0038883489553598
1.0075539682968899
1.0052952511343356
1.0075534822546237
1.0065032009982726
1.007550635285734
1.0072111223169482
1.0075493094125529
1.0074722476312992
1.00754901920343
1.0075361448315292
1.0075489800855808
1.007545816777677
1.0075489800855808
1.0075361448315292
1.00754901920343
1.0074722476312992
1.0075493094125529
1.0072111223169482
1.007550635285734
1.0065032009982726
1.0075534822546237
1.0052952511343356
1.0075539682968899
1.0038883489553598
1.0075470824583728
1.0022201184671573
1.0075333919738831
1.0001584362191025
1.0000780501539772
1.0002193983239811
1.0000780531173297
1.0001540656865593
1.0000780380892824
1.0001107046755242
1.0000780315292255
1.0000890593085658
1.0000780337918918
1.0000809186198076
1.0000780359828387
1.0000786164051103
1.0000780366196367
1.0000781278099715
1.0000780367226783
1.0000780585970577
1.0000780367226783
1.0000781278099715
1.0000780366196367
1.0000786164051103
1.0000780359828387
1.0000809186198076
1.0000780337918918
1.0000890593085658
1.0000780315292255
1.0001107046755242
1.0000780380892824
1.0001540656865593
1.0000780531173297
1.0002193983239811
1.0000780501539772
1.0002959571135133
1.0062585275658318
1.0020296498172478
1.0062648666485436
1.0033594439328988
1.0062692115826553
1.0046349602285694
1.0062691745479524
1.0056138747054002
1.0062680460272293
1.0060862853629708
1.006267601721049
1.0062317923015356
1.0062675178726921
1.006262268378076
1.0062675078149195
1.0062663574603514
1.0062675078149195
1.006262268378076
1.0062675178726921
1.0062317923015356
1.006267601721049
1.0060862853629708
1.0062680460272293
1.0056138747054002
1.0062691745479524
1.0046349602285694
1.0062692115826553
1.0033594439328988
1.0062648666485436
1.0020296498172478
1.0062585275658318
1.0005527786369237
1.0005227204358931
1.0008588659138629
1.0005227861302579
1.0007084250795633
1.0005228114948548
1.0006042187697706
1.0005228079957229
1.0005499040080985
1.000522804472102
1.0005295543621602
1.0005228037506768
1.0005240732699026
1.0005228036845912
1.0005229892251
1.0005228036822622
1.0005228454318649
1.0005228036822622
1.0005229892251
1.0005228036845912
1.0005240732699026
1.0005228037506768
1.0005295543621602
1.000522804472102
1.0005499040080985
1.0005228079957229
1.0006042187697706
1.0005228114948548
1.0007084250795633
1.0005227861302579
1.0008588659138629
1.0005227204358931
1.001032231036755
1.0055793632162819
1.0029863354646298
1.0055819780302278
1.0039792754647665
1.0055837863196819
1.0048309511555968
1.0055838781505475
1.0053364435350682
1.005583640174105
1.0055268131526243
1.0055835566056639
1.005574161719359
1.0055835423615667
1.0055823792544283
1.0055835407877087
1.0055833237303409
1.0055835407877087
1.0055823792544283
1.0055835423615667
1.005574161719359
1.0055835566056639
1.0055268131526243
1.005583640174105
1.0053364435350682
1.0055838781505475
1.0048309511555968
1.0055837863196819
1.0039792754647665
1.0055819780302278
1.0029863354646298
1.0055793632162819
1.0019267346633276
1.0025411153532211
1.0032602720540096
1.0025413131134242
1.0029581980591418
1.0025414190824746
1.0027343123353298
1.0025414167621862
1.0026084195761884
1.0025414016741054
1.0025585862645643
1.0025413969041945
1.0025446930645237
1.0025413961273402
1.0025418848673067
1.0025413960434277
1.0025415072723507
1.0025413960434277
1.0025418848673067
1.0025413961273402
1.0025446930645237
1.0025413969041945
1.0025585862645643
1.0025414016741054
1.0026084195761884
1.0025414167621862
1.0027343123353298
1.0025414190824746
1.0029581980591418
1.0025413131134242
1.0032602720540096
1.0025411153532211
1.0035936025814203
1.0075642366019708
1.0070660353266561
1.0075652602643392
1.0073660893650078
1.0075658855468803
1.0075386897685037
1.0075659391570804
1.0075807182394119
1.0075658903480718
1.0075751342649777
1.0075658725331329
1.0075684881550828
1.0075658694746035
1.0075663560568575
1.007565869138205
1.0075659967010993
1.007565869138205
1.0075663560568575
1.0075658694746035
1.0075684881550828
1.0075658725331329
1.0075751342649777
1.0075658903480718
1.0075807182394119
1.0075659391570804
1.0075386897685037
1.0075658855468803
1.0073660893650078
1.0075652602643392
1.0070660353266561
1.0075642366019708
1.006692850924285
1.0105856679286815
1.0118937946022477
1.0105862792132767
1.0113772643358194
1.0105865996617927
1.0109728542024916
1.0105865695053378
1.0107277174499736
1.0105865023890961
1.0106242386093092
1.0105864807481089
1.0105939587091608
1.0105864771073567
1.0105876148952975
1.0105864767027486
1.0105867407932212
1.0105864767027486
1.0105876148952975
1.0105864771073567
1.0105939587091608
1.0105864807481089
1.0106242386093092
1.0105865023890961
1.0107277174499736
1.0105865695053378
1.0109728542024916
1.0105865996617927
1.0113772643358194
1.0105862792132767
1.0118937946022477
1.0105856679286815
1.0124316508531859
1.0214653293633973
1.0226573581423819
1.021466465088783
1.0222721448049714
1.0214670356142237
1.0219069573734205
1.021466977448189
1.0216415493708306
1.0214668514571152
1.0215161236161914
1.0214668099027135
1.021476921194679
1.0214668027792446
1.0214683770481443
1.021466801977345
1.021467172820262
1.021466801977345
1.0214683770481443
1.0214668027792446
1.021476921194679
1.0214668099027135
1.0215161236161914
1.0214668514571152
1.0216415493708306
1.021466977448189
1.0219069573734205
1.0214670356142237
1.0222721448049714
1.021466465088783
1.0226573581423819
1.0214653293633973
1.0229773699100257
1.0392525470929541
1.0413354302321172
1.0392543199911934
1.0405443950209814
1.0392550770804621
1.0399120489741875
1.0392548961756845
1.0395050170142968
1.0392546598742505
1.0393236611760817
1.0392545846965624
1.0392685568352391
1.039254571921602
1.0392567278023037
1.039254570484391
1.0392550749839295
1.039254570484391
1.0392567278023037
1.039254571921602
1.0392685568352391
1.0392545846965624
1.0393236611760817
1.0392546598742505
1.0395050170142968
1.0392548961756845
1.0399120489741875
1.0392550770804621
1.0405443950209814
1.0392543199911934
1.0413354302321172
1.0392525470929541
1.0420877279156189
1.0726212202457706
1.0750775917097235
1.0726242007367668
1.0741684340709108
1.0726252340677691
1.073430472417134
1.0726248593200971
1.0729369961143127
1.0726244574260992
1.0727113554834178
1.07262433221437
1.0726419645083718
1.0726243110814198
1.0726270236172044
1.0726243087127703
1.0726249397403542
1.0726243087127703
1.0726270236172044
1.0726243110814198
1.0726419645083718
1.07262433221437
1.0727113554834178
1.0726244574260992
1.0729369961143127
1.0726248593200971
1.073430472417134
1.0726252340677691
1.0741684340709108
1.0726242007367668
1.0750775917097235
1.0726212202457706
1.0758581800212434
1.1288190115148373
1.1319481398961981
1.1288240137639605
1.1307455969109441
1.1288252523735502
1.1298195907945678
1.1288245153204293
1.1292082902064604
1.1288238665266968
1.1289298773668384
1.128823672224559
1.1288449204079349
1.1288236401230345
1.1288268558716648
1.1288236365797422
1.1288243711605686
1.1288236365797422
1.1288268558716648
1.1288236401230345
1.1288449204079349
1.128823672224559
1.1289298773668384
1.1288238665266968
1.1292082902064604
1.1288245153204293
1.1298195907945678
1.1288252523735502
1.1307455969109441
1.1288240137639605
1.1319481398961981
1.1288190115148373
1.1329642401978293
1.2177024218466723
1.2214475894889136
1.2177104561617327
1.2199911831211818
1.2177116549087474
1.2188956643405087
1.2177103311981232
1.2181656029969796
1.2177093490075921
1.2178333156098997
1.2177090698199982
1.2177333600520652
1.217709025324943
1.2177125960193642
1.2177090205563605
1.2177098107741049
1.2177090205563605
1.2177125960193642
1.217709025324943
1.2177333600520652
1.2177090698199982
1.2178333156098997
1.2177093490075921
1.2181656029969796
1.2177103311981232
1.2188956643405087
1.2177116549087474
1.2199911831211818
1.2177104561617327
1.2214475894889136
1.2177024218466723
1.2227001388253087
1.3424316950260229
1.3468026530356945
1.3424434382272752
1.34509681010478
1.3424441535892429
1.3438242546229879
1.342441988610962
1.3429665147563985
1.3424406056877447
1.3425797848945367
1.3424402377788378
1.3424665433851501
1.3424401821234124
1.3424438827769922
1.3424401764196838
1.3424409577428644
1.3424401764196838
1.3424438827769922
1.3424401821234124
1.3424665433851501
1.3424402377788378
1.3425797848945367
1.3424406056877447
1.3429665147563985
1.342441988610962
1.3438242546229879
1.3424441535892429
1.34509681010478
1.3424434382272752
1.3468026530356945
1.3424316950260229
1.3486451353339457
1.4921748165365312
1.4969903639078852
1.4921900642427559
1.4951574775042693
1.4921897564811717
1.493742555806749
1.4921865932159948
1.4927664167724068
1.4921848184225601
1.4923331446301398
1.4921843814347528
1.4922110740647285
1.4921843196496991
1.4921878617782287
1.4921843136937245
1.4921850166280919
1.4921843136937245
1.4921878617782287
1.4921843196496991
1.4922110740647285
1.4921843814347528
1.4923331446301398
1.4921848184225601
1.4927664167724068
1.4921865932159948
1.493742555806749
1.4921897564811717
1.4951574775042693
1.4921900642427559
1.4969903639078852
1.4921748165365312
1.5
1.6417704160860678
1.6468166949111902
1.6417878893111149
1.6449793277578888
1.6417865645337855
1.6434603667268952
1.6417825843476492
1.6423891667807204
1.6417805773113903
1.6419280422101239
1.6417801256508504
1.6418050446046051
1.6417800669676994
1.6417831472386095
1.6417800617336951
1.6417806299959044
1.6417800617336951
1.6417831472386095
1.6417800669676994
1.6418050446046051
1.6417801256508504
1.6419280422101239
1.6417805773113903
1.6423891667807204
1.6417825843476492
1.6434603667268952
1.6417865645337855
1.6449793277578888
1.6417878893111149
1.6468166949111902
1.6417704160860678
1.6513548646660543
1.7667193199259703
1.7718332310187852
1.7667367964621992
1.7700533715497897
1.7667353238389556
1.7684477867429356
1.7667311363918845
1.7673212599495163
1.7667292065341018
1.7668634529176965
1.7667288131047842
1.7667499011100045
1.7667287664939073
1.7667311808987354
1.7667287626643446
1.7667291755442396
1.7667287626643446
1.7667311808987354
1.7667287664939073
1.7667499011100045
1.7667288131047842
1.7668634529176965
1.7667292065341018
1.7673212599495163
1.7667311363918845
1.7684477867429356
1.7667353238389556
1.7700533715497897
1.7667367964621992
1.7718332310187852
1.7667193199259703
1.7772998611746911
1.8565536922272297
1.8616819996253511
1.8565693055387997
1.8598955528639891
1.8565683672775615
1.8582066587976731
1.8565646736437893
1.8570908667858461
1.8565631132564182
1.8566741218639615
1.8565628251492758
1.8565790046744737
1.8565627939096596
1.8565645142948421
1.8565627915321672
1.8565630655975172
1.8565627915321672
1.8565645142948421
1.8565627939096596
1.8565790046744737
1.8565628251492758
1.8566741218639615
1.8565631132564182
1.8570908667858461
1.8565646736437893
1.8582066587976731
1.8565683672775615
1.8598955528639891
1.8565693055387997
1.8616819996253511
1.8565536922272297
1.8670357598021707
1.9146945514066713
1.9196337979980906
1.9147070011463638
1.9178345683653026
1.9147066669794444
1.9161461091258902
1.9147039208353254
1.9151316457500878
1.9147028536458499
1.9147866292076232
1.9147026736999053
1.9147140698889988
1.9147026556545803
1.9147037910388252
1.9147026543695589
1.9147028245775661
1.9147026543695589
1.9147037910388252
1.9147026556545803
1.9147140698889988
1.9147026736999053
1.9147866292076232
1.9147028536458499
1.9151316457500878
1.9147039208353254
1.9161461091258902
1.9147066669794444
1.9178345683653026
1.9147070011463638
1.9196337979980906
1.9146945514066713
1.9241418199787566
1.9496018790332643
1.9542176870804062
1.9496107866664567
1.9523634741660223
1.9496108252255591
1.9507760522145456
1.9496090739157572
1.94992916830967
1.9496084441264772
1.9496670031625409
1.949608346037522
1.9496158497148366
1.9496083368286063
1.9496090451075623
1.9496083362082699
1.9496084373200584
1.9496083362082699
1.9496090451075623
1.9496083368286063
1.9496158497148366
1.949608346037522
1.9496670031625409
1.9496084441264772
1.94992916830967
1.9496090739157572
1.9507760522145456
1.9496108252255591
1.9523634741660223
1.9496107866664567
1.9542176870804062
1.9496018790332643
1.9579122720843811
1.9708786601445785
1.9744714081181298
1.9708842905473272
1.9729780030321158
1.9708845148702496
1.9717256186463352
1.9708835676173229
1.9711021009490584
1.9708832442531936
1.9709212507313989
1.9708831968086451
1.970887853899749
1.9708831925737431
1.9708836148989717
1.9708831923007182
1.9708832504715226
1.9708831923007182
1.9708836148989717
1.9708831925737431
1.970887853899749
1.9708831968086451
1.9709212507313989
1.9708832442531936
1.9711021009490584
1.9708835676173229
1.9717256186463352
1.9708845148702496
1.9729780030321158
1.9708842905473272
1.9744714081181298
1.9708786601445785
1.9770226300899743
1.9821997564223039
1.9853400122300642
1.9822030380443354
1.9838574200612011
1.9822032247228809
1.9828075984443432
1.9822027498227044
1.9823487764804775
1.9822025978119071
1.9822266394265711
1.9822025767963227
1.982205399277758
1.9822025750054066
1.9822028221774821
1.9822025748942613
1.9822026079661357
1.9822025748942613
1.9822028221774821
1.9822025750054066
1.982205399277758
1.9822025767963227
1.9822266394265711
1.9822025978119071
1.9823487764804775
1.9822027498227044
1.9828075984443432
1.9822032247228809
1.9838574200612011
1.9822030380443354
1.9853400122300642
1.9821997564223039
1.9875683491468141
1.9917222466183402
1.9926597209862538
1.991724345434196
1.992313974653162
1.9917246385621106
1.99197233325013
1.991724452360123
1.9917896293242743
1.9917243873250552
1.9917356721733261
1.9917243781607126
1.9917257434996134
1.9917243773742266
1.9917244991410556
1.9917243773257485
1.9917243937946711
1.9917243773257485
1.9917244991410556
1.9917243773742266
1.9917257434996134
1.9917243781607126
1.9917356721733261
1.9917243873250552
1.9917896293242743
1.991724452360123
1.99197233325013
1.9917246385621106
1.992313974653162
1.991724345434196
1.9926597209862538
1.9917222466183402
1.993307149075715
1.9936482838570377
1.9952503549641158
1.9936491130168565
1.9944139095023605
1.9936491885131449
1.9939013723317556
1.993649104848852
1.9937050980073558
1.993649080046263
1.9936577069465389
1.993649076902885
1.9936500380695699
1.9936490766540444
1.9936491573423798
1.9936490766395616
1.9936490870706514
1.9936490766395616
1.9936491573423798
1.9936490766540444
1.9936500380695699
1.993649076902885
1.9936577069465389
1.993649080046263
1.9937050980073558
1.993649104848852
1.9939013723317556
1.9936491885131449
1.9944139095023605
1.9936491130168565
1.9952503549641158
1.9936482838570377
1.9964063974185799
2.0009773103313342
1.998900500614329
2.0009805035988522
1.9998742238883609
2.0009809750757865
2.0006101165406842
2.0009806422145058
2.0009025488870833
2.0009805301519528
2.0009695696967964
2.0009805145631163
2.0009794282753401
2.0009805132090905
2.0009804334195178
2.0009805131237837
2.0009805041959385
2.0009805131237837
2.0009804334195178
2.0009805132090905
2.0009794282753401
2.0009805145631163
2.0009695696967964
2.0009805301519528
2.0009025488870833
2.0009806422145058
2.0006101165406842
2.0009809750757865
1.9998742238883609
2.0009805035988522
1.998900500614329
2.0009773103313342
1.9980732653366724
1.9978584203527736
1.9984971489761429
1.9978585594468203
1.9981520719938088
1.997858569517428
1.9979538521949716
1.9978585670000126
1.9978797414009954
1.9978585679583096
1.9978618534977219
1.9978585683477406
1.997858937298725
1.9978585684028956
1.9978585995785458
1.9978585684075645
1.9978585724553173
1.9978585684075645
1.9978585995785458
1.9978585684028956
1.997858937298725
1.9978585683477406
1.9978618534977219
1.9978585679583096
1.9978797414009954
1.9978585670000126
1.9979538521949716
1.997858569517428
1.9981520719938088
1.9978585594468203
1.9984971489761429
1.9978584203527736
1.9989677689632452
2.0048917999039277
2.0010025990017688
2.0049018709948334
2.0024404711097334
2.0049021147191959
2.0038587308814875
2.0049001772619826
2.0046255164347082
2.004899513458958
2.0048523537573577
2.0048994149203629
2.0048937920161571
2.0048994059826257
2.0048989140601927
2.0048994053975493
2.0048993403630848
2.0048994053975493
2.0048989140601927
2.0048994059826257
2.0048937920161571
2.0048994149203629
2.0048523537573577
2.004899513458958
2.0046255164347082
2.0049001772619826
2.0038587308814875
2.0049021147191959
2.0024404711097334
2.0049018709948334
2.0010025990017688
2.0048917999039277
1.9994472213630763
1.9993687889293299
1.9995722138810801
1.9993687228109129
1.9994608807407344
1.9993687257267496
1.9994009897763478
1.9993687463267926
1.999377072501606
1.9993687562613387
1.9993702855690172
1.999368758344418
1.9993689597792519
1.9993687585970163
1.9993687782354101
1.9993687586176543
1.9993687615019979
1.9993687586176543
1.9993687782354101
1.9993687585970163
1.9993689597792519
1.999368758344418
1.9993702855690172
1.9993687562613387
1.999377072501606
1.9993687463267926
1.9994009897763478
1.9993687257267496
1.9994608807407344
1.9993687228109129
1.9995722138810801
1.9993687889293299
1.999704042886487
2.0073408462639764
2.0026411246825671
2.0073622344761652
2.0043945048511094
2.0073580013137646
2.0059470509152666
2.0073529418503502
2.0069241631197672
2.0073511918239868
2.0072667525990364
2.0073509020767775
2.0073394994506257
2.0073508730220992
2.0073497556070232
2.0073508709618104
2.0073507074075847
2.0073508709618104
2.0073497556070232
2.0073508730220992
2.0073394994506257
2.0073509020767775
2.0072667525990364
2.0073511918239868
2.0069241631197672
2.0073529418503502
2.0059470509152666
2.0073580013137646
2.0043945048511094
2.0073622344761652
2.0026411246825671
2.0073408462639764
1.9998415637808975
1.9999151889582765
1.9999151889582765
1.9999151889582765
1.9999151889582765
1.9999151889582765
1.9999151889582765
1.9999151889582765
1.9999151889582765
1.9999151889582765
1.9999151889582765
1.9999151889582765
1.9999151889582765
1.9999151889582765
1.9999151889582765
1.9999151889582765
1.9999151889582765
1.9999151889582765
1.9999151889582765
1.9999151889582765
1.9999151889582765
1.9999151889582765
1.9999151889582765
1.9999151889582765
1.9999151889582765
1.9999151889582765
1.9999151889582765
1.9999151889582765
1.9999151889582765
1.9999151889582765
1.9999151889582765
1.9999151889582765
1.9999151889582765
1.0032055369075417
1.0014527259357504
1.0032233623638411
1.0020371286379144
1.003223521981742
1.0022884065072541
1.0032222729460969
1.0025807718469035
1.003220010466549
1.0029221801977544
1.0032184435709806
1.0031265748543772
1.0032179380516495
1.0031978374761827
1.0032178431376848
1.0032116494145757
1.0032178431376848
1.0031978374761827
1.0032179380516495
1.0031265748543772
1.0032184435709806
1.0029221801977544
1.003220010466549
1.0025807718469035
1.0032222729460969
1.0022884065072541
1.003223521981742
1.0020371286379144
1.0032233623638411
1.0014527259357504
1.0032055369075417
1.0000453978687025
1.0000414401354107
1.0000754497486251
1.0000413640708856
1.0000608640652153
1.0000413501120988
1.0000502027773757
1.0000413575169138
1.0000446160986451
1.000041365159178
1.0000423726718592
1.0000413692753962
1.000041626548603
1.0000413705919404
1.000041423784708
1.0000413708547387
1.0000413873499014
1.0000413708547387
1.000041423784708
1.0000413705919404
1.000041626548603
1.0000413692753962
1.0000423726718592
1.000041365159178
1.0000446160986451
1.0000413575169138
1.0000502027773757
1.0000413501120988
1.0000608640652153
1.0000413640708856
1.0000754497486251
1.0000414401354107
1.0000848110417238
1.0020738207228757
1.00070872653016
1.0020821837170706
1.001052020359219
1.0020848488313314
1.0012047488073168
1.0020849975306831
1.0014988135359357
1.0020834491190895
1.0018328833054473
1.0020824000320392
1.0020119679961295
1.002082096932303
1.0020680603033649
1.00208204573214
1.0020780631256085
1.00208204573214
1.0020680603033649
1.002082096932303
1.0020119679961295
1.0020824000320392
1.0018328833054473
1.0020834491190895
1.0014988135359357
1.0020849975306831
1.0012047488073168
1.0020848488313314
1.001052020359219
1.0020821837170706
1.00070872653016
1.0020738207228757
1.0001584362191025
1.0001818349216822
1.0002627790891669
1.000181858428838
1.0002294244124816
1.0001818543689007
1.0002035333653565
1.0001818487644996
1.000189407668657
1.0001818474803967
1.0001839064718054
1.0001818480531486
1.0001822912332763
1.0001818483930036
1.0001819249590509
1.0001818484699976
1.0001818688717679
1.0001818484699976
1.0001819249590509
1.0001818483930036
1.0001822912332763
1.0001818480531486
1.0001839064718054
1.0001818474803967
1.000189407668657
1.0001818487644996
1.0002035333653565
1.0001818543689007
1.0002294244124816
1.000181858428838
1.0002627790891669
1.0001818349216822
1.0002959571135133
1.001875497394441
1.0007506922596276
1.0018786726167439
1.0008694747746785
1.0018809288378654
1.0010600261228249
1.0018811819617435
1.0014316387671929
1.0018803974895985
1.0017223832470659
1.0018799648520635
1.0018424311678484
1.0018798599136898
1.0018734041761548
1.0018798443757677
1.0018782230017944
1.0018798443757677
1.0018734041761548
1.0018798599136898
1.0018424311678484
1.0018799648520635
1.0017223832470659
1.0018803974895985
1.0014316387671929
1.0018811819617435
1.0010600261228249
1.0018809288378654
1.0008694747746785
1.0018786726167439
1.0007506922596276
1.001875497394441
1.0005527786369237
1.0007966876120296
1.0009674739739909
1.0007967339970378
1.0009016366089456
1.0007967541607907
1.0008491889025564
1.000796751285008
1.0008167999126556
1.0007967471938888
1.0008024609746837
1.0007967460593044
1.0007979648109329
1.0007967459015159
1.0007969465107349
1.0007967458887785
1.0007967960881625
1.0007967458887785
1.0007969465107349
1.0007967459015159
1.0007979648109329
1.0007967460593044
1.0008024609746837
1.0007967471938888
1.0008167999126556
1.000796751285008
1.0008491889025564
1.0007967541607907
1.0009016366089456
1.0007967339970378
1.0009674739739909
1.0007966876120296
1.001032231036755
1.0032011393973537
1.002142156384163
1.0032025213331683
1.0023605963819884
1.0032037088708394
1.0026825530178918
1.0032038325021355
1.0029870255596949
1.003203606321768
1.0031431415258292
1.0032035029687794
1.0031916899609561
1.0032034811598645
1.0032017742631447
1.0032034782343773
1.0032031100813352
1.0032034782343773
1.0032017742631447
1.0032034811598645
1.0031916899609561
1.0032035029687794
1.0031431415258292
1.003203606321768
1.0029870255596949
1.0032038325021355
1.0026825530178918
1.0032037088708394
1.0023605963819884
1.0032025213331683
1.002142156384163
1.0032011393973537
1.0019267346633276
1.0032127404088351
1.0035127061058497
1.0032128494106445
1.0034142963090986
1.0032129120813114
1.0033255180565928
1.0032129113470973
1.0032600649520835
1.0032128994983118
1.003227153307557
1.0032128949598984
1.0032160434763091
1.0032128940792215
1.0032134231526331
1.0032128939679927
1.0032130279643947
1.0032128939679927
1.0032134231526331
1.0032128940792215
1.0032160434763091
1.0032128949598984
1.003227153307557
1.0032128994983118
1.0032600649520835
1.0032129113470973
1.0033255180565928
1.0032129120813114
1.0034142963090986
1.0032128494106445
1.0035127061058497
1.0032127404088351
1.0035936025814203
1.0074806432802976
1.0069554413875894
1.0074812738868533
1.0071774117456089
1.0074817370765388
1.0073685318652952
1.0074817868388541
1.0074609549515332
1.0074817355472123
1.0074822739669029
1.007481713308561
1.0074829997673485
1.0074817088008534
1.0074820750700908
1.0074817082157042
1.007481828502399
1.0074817082157042
1.0074820750700908
1.0074817088008534
1.0074829997673485
1.007481713308561
1.0074822739669029
1.0074817355472123
1.0074609549515332
1.0074817868388541
1.0073685318652952
1.0074817370765388
1.0071774117456089
1.0074812738868533
1.0069554413875894
1.0074806432802976
1.006692850924285
1.0119418945495302
1.0123795322471862
1.0119421778087938
1.0122567065920143
1.0119423277099058
1.0121361730408567
1.0119423159219207
1.0120309583837968
1.0119422730843901
1.0119709087524134
1.0119422557527309
1.0119488951914155
1.0119422521949504
1.011943409147023
1.011942251724699
1.0119425525436732
1.011942251724699
1.011943409147023
1.0119422521949504
1.0119488951914155
1.0119422557527309
1.0119709087524134
1.0119422730843901
1.0120309583837968
1.0119423159219207
1.0121361730408567
1.0119423277099058
1.0122567065920143
1.0119421778087938
1.0123795322471862
1.0119418945495302
1.0124316508531859
1.0230455321359446
1.0231693075254262
1.0230460751858155
1.0232131073575506
1.0230463514787322
1.0232051566855127
1.0230463368537883
1.0231378142834224
1.0230462626194141
1.0230796487516451
1.0230462313936888
1.0230545230564687
1.0230462248027981
1.0230477313156368
1.0230462239147875
1.0230466256845896
1.0230462239147875
1.0230477313156368
1.0230462248027981
1.0230545230564687
1.0230462313936888
1.0230796487516451
1.0230462626194141
1.0231378142834224
1.0230463368537883
1.0232051566855127
1.0230463514787322
1.0232131073575506
1.0230460751858155
1.0231693075254262
1.0230455321359446
1.0229773699100257
1.0415789059023637
1.0421424621649376
1.0415796446508798
1.0419895539657358
1.0415799039120586
1.0418536191780841
1.0415798348883842
1.0417157398772201
1.0415797123177668
1.0416263245778474
1.041579662158244
1.0415909090598969
1.0415796515364264
1.0415816630468522
1.0415796500945782
1.0415801813967966
1.0415796500945782
1.0415816630468522
1.0415796515364264
1.0415909090598969
1.041579662158244
1.0416263245778474
1.0415797123177668
1.0417157398772201
1.0415798348883842
1.0418536191780841
1.0415799039120586
1.0419895539657358
1.0415796446508798
1.0421424621649376
1.0415789059023637
1.0420877279156189
1.0755101561759943
1.0760474406321494
1.0755113533485394
1.0759159104375253
1.0755116301585934
1.0758051988736359
1.0755114958310954
1.075666030381998
1.0755113095653386
1.0755659536772542
1.0755112340253643
1.0755245996238951
1.0755112179628101
1.0755136172102651
1.0755112157739068
1.075511848179147
1.0755112157739068
1.0755136172102651
1.0755112179628101
1.0755245996238951
1.0755112340253643
1.0755659536772542
1.0755113095653386
1.075666030381998
1.0755114958310954
1.0758051988736359
1.0755116301585934
1.0759159104375253
1.0755113533485394
1.0760474406321494
1.0755101561759943
1.0758581800212434
1.1323362106704242
1.133065500779141
1.1323380890598149
1.1328262829777893
1.1323382711904331
1.1326776464017374
1.1323380240461636
1.1325156412987012
1.1323377572568765
1.1324003399879303
1.1323376521619168
1.1323528263578835
1.1323376300568411
1.1323403153424081
1.1323376270694647
1.1323383228451422
1.1323376270694647
1.1323403153424081
1.1323376300568411
1.1323528263578835
1.1323376521619168
1.1324003399879303
1.1323377572568765
1.1325156412987012
1.1323380240461636
1.1326776464017374
1.1323382711904331
1.1328262829777893
1.1323380890598149
1.133065500779141
1.1323362106704242
1.1329642401978293
1.2217233630659812
1.2225014809543893
1.2217259677630259
1.2222301932526618
1.2217259346592491
1.2220881171250675
1.2217255497759703
1.2219187465267085
1.2217251987216899
1.2217929774447027
1.2217250653852425
1.221741195413599
1.2217250380355136
1.2217278134772851
1.2217250344226811
1.2217257309963199
1.2217250344226811
1.2217278134772851
1.2217250380355136
1.221741195413599
1.2217250653852425
1.2217929774447027
1.2217251987216899
1.2219187465267085
1.2217255497759703
1.2220881171250675
1.2217259346592491
1.2222301932526618
1.2217259677630259
1.2225014809543893
1.2217233630659812
1.2227001388253087
1.3467066598074318
1.3474962431099824
1.3467096379322101
1.347225080785899
1.3467093246541131
1.3470915456469255
1.3467088117418646
1.3469128374239596
1.3467083934203929
1.3467783101795072
1.3467082416007399
1.3467242693857269
1.3467082116841318
1.346710841236135
1.3467082078819219
1.3467088347093266
1.3467082078819219
1.346710841236135
1.3467082116841318
1.3467242693857269
1.3467082416007399
1.3467783101795072
1.3467083934203929
1.3469128374239596
1.3467088117418646
1.3470915456469255
1.3467093246541131
1.347225080785899
1.3467096379322101
1.3474962431099824
1.3467066598074318
1.3486451353339457
1.4966284617704309
1.4973348549012799
1.4966312851286585
1.4971322319344653
1.4966308246368376
1.4970211894896557
1.4966302639193214
1.4968365260606598
1.4966298251994601
1.4966975270267071
1.4966296742064871
1.4966442924250261
1.4966296462086257
1.4966318807612955
1.4966296428654231
1.4966301379772238
1.4966296428654231
1.4966318807612955
1.4966296462086257
1.4966442924250261
1.4966296742064871
1.4966975270267071
1.4966298251994601
1.4968365260606598
1.4966302639193214
1.4970211894896557
1.4966308246368376
1.4971322319344653
1.4966312851286585
1.4973348549012799
1.4966284617704309
1.5
1.6468680696189031
1.6474739707955979
1.6468702444227548
1.6473562253908887
1.6468700469209614
1.6472639032225
1.6468695756069354
1.6470679713969612
1.6468691893001761
1.6469293657825346