# vtk DataFile Version 3.0
Euler density step 30
ASCII
DATASET STRUCTURED_POINTS
DIMENSIONS 32 32 32
ORIGIN 0 0 0
SPACING 0.3125 0.3125 0.3125
POINT_DATA 32768
SCALARS density double 1
LOOKUP_TABLE default
1.0001662297138902
1.0001643320078382
1.0001662297170173
1.0001662208668227
1.0001662297163314
1.0001662296974825
1.0001662297163305
1.0001662297163096
1.0001662297163305
1.0001662297163305
1.0001662297163305
1.0001662297163305
1.0001662297163305
1.0001662297163305
1.0001662297163305
1.0001662297163305
1.0001662297163305
1.0001662297163305
1.0001662297163305
1.0001662297163305
1.0001662297163305
1.0001662297163305
1.0001662297163305
1.0001662297163096
1.0001662297163305
1.0001662296974825
1.0001662297163314
1.0001662208668227
1.0001662297170173
1.0001643320078382
1.0001662297138902
1.0000453978687025
1.0000848190866238
1.0000848193394265
1.0000848190866241
1.0000848190882783
1.0000848190866241
1.0000848190866278
1.0000848190866241
1.0000848190866241
1.0000848190866241
1.0000848190866241
1.0000848190866241
1.0000848190866241
1.0000848190866241
1.0000848190866241
1.0000848190866241
1.0000848190866241
1.0000848190866241
1.0000848190866241
1.0000848190866241
1.0000848190866241
1.0000848190866241
1.0000848190866241
1.0000848190866241
1.0000848190866241
1.0000848190866241
1.0000848190866278
1.0000848190866241
1.0000848190882783
1.0000848190866241
1.0000848193394265
1.0000848190866238
1.0000848110417238
1.000160328546525
1.0001603113838473
1.0001603285467024
1.0001603284928291
1.0001603285467018
1.0001603285466241
1.0001603285467018
1.0001603285467018
1.0001603285467018
1.0001603285467018
1.0001603285467018
1.0001603285467018
1.0001603285467018
1.0001603285467018
1.0001603285467018
1.0001603285467018
1.0001603285467018
1.0001603285467018
1.0001603285467018
1.0001603285467018
1.0001603285467018
1.0001603285467018
1.0001603285467018
1.0001603285467018
1.0001603285467018
1.0001603285466241
1.0001603285467018
1.0001603284928291
1.0001603285467024
1.0001603113838473
1.000160328546525
1.0001584362191025
1.0002959304571495
1.0002959313421096
1.0002959304571495
1.0002959304615282
1.0002959304571495
1.0002959304571597
1.0002959304571495
1.0002959304571495
1.0002959304571495
1.0002959304571495
1.0002959304571495
1.0002959304571495
1.0002959304571495
1.0002959304571495
1.0002959304571495
1.0002959304571495
1.0002959304571495
1.0002959304571495
1.0002959304571495
1.0002959304571495
1.0002959304571495
1.0002959304571495
1.0002959304571495
1.0002959304571495
1.0002959304571495
1.0002959304571597
1.0002959304571495
1.0002959304615282
1.0002959304571495
1.0002959313421096
1.0002959304571495
1.0002959571135133
1.0005527374053937
1.0005527389219102
1.0005527374053937
1.0005527374130034
1.0005527374053937
1.0005527374054117
1.0005527374053937
1.0005527374053937
1.0005527374053937
1.0005527374053937
1.0005527374053937
1.0005527374053937
1.0005527374053937
1.0005527374053937
1.0005527374053937
1.0005527374053937
1.0005527374053937
1.0005527374053937
1.0005527374053937
1.0005527374053937
1.0005527374053937
1.0005527374053937
1.0005527374053937
1.0005527374053937
1.0005527374053937
1.0005527374054117
1.0005527374053937
1.0005527374130034
1.0005527374053937
1.0005527389219102
1.0005527374053937
1.0005527786369237
1.0010321371224351
1.0010321399789222
1.0010321371224351
1.0010321371364257
1.0010321371224351
1.0010321371224669
1.0010321371224351
1.0010321371224351
1.0010321371224351
1.0010321371224351
1.0010321371224351
1.0010321371224351
1.0010321371224351
1.0010321371224351
1.0010321371224351
1.0010321371224351
1.0010321371224351
1.0010321371224351
1.0010321371224351
1.0010321371224351
1.0010321371224351
1.0010321371224351
1.0010321371224351
1.0010321371224351
1.0010321371224351
1.0010321371224669
1.0010321371224351
1.0010321371364257
1.0010321371224351
1.0010321399789222
1.0010321371224351
1.001032231036755
1.0019265586389785
1.0019265638859773
1.0019265586389785
1.0019265586646047
1.0019265586389785
1.0019265586390362
1.0019265586389785
1.0019265586389785
1.0019265586389785
1.0019265586389785
1.0019265586389785
1.0019265586389785
1.0019265586389785
1.0019265586389785
1.0019265586389785
1.0019265586389785
1.0019265586389785
1.0019265586389785
1.0019265586389785
1.0019265586389785
1.0019265586389785
1.0019265586389785
1.0019265586389785
1.0019265586389785
1.0019265586389785
1.0019265586390362
1.0019265586389785
1.0019265586646047
1.0019265586389785
1.0019265638859773
1.0019265586389785
1.0019267346633276
1.0035932720460961
1.0035932817342279
1.0035932720460961
1.0035932720932845
1.0035932720460961
1.0035932720462006
1.0035932720460961
1.0035932720460963
1.0035932720460961
1.0035932720460961
1.0035932720460961
1.0035932720460961
1.0035932720460961
1.0035932720460961
1.0035932720460961
1.0035932720460961
1.0035932720460961
1.0035932720460961
1.0035932720460961
1.0035932720460961
1.0035932720460961
1.0035932720460961
1.0035932720460961
1.0035932720460963
1.0035932720460961
1.0035932720462006
1.0035932720460961
1.0035932720932845
1.0035932720460961
1.0035932817342279
1.0035932720460961
1.0035936025814203
1.0066922281674366
1.0066922460658507
1.0066922281674369
1.0066922282543
1.0066922281674369
1.0066922281676294
1.0066922281674369
1.0066922281674371
1.0066922281674369
1.0066922281674369
1.0066922281674369
1.0066922281674369
1.0066922281674369
1.0066922281674369
1.0066922281674369
1.0066922281674369
1.0066922281674369
1.0066922281674369
1.0066922281674369
1.0066922281674369
1.0066922281674369
1.0066922281674369
1.0066922281674369
1.0066922281674371
1.0066922281674369
1.0066922281676294
1.0066922281674369
1.0066922282543
1.0066922281674369
1.0066922460658507
1.0066922281674366
1.006692850924285
1.012430470193687
1.0124305031356613
1.0124304701936881
1.0124304703526086
1.0124304701936881
1.0124304701940379
1.0124304701936881
1.0124304701936884
1.0124304701936881
1.0124304701936881
1.0124304701936881
1.0124304701936881
1.0124304701936881
1.0124304701936881
1.0124304701936881
1.0124304701936881
1.0124304701936881
1.0124304701936881
1.0124304701936881
1.0124304701936881
1.0124304701936881
1.0124304701936881
1.0124304701936881
1.0124304701936884
1.0124304701936881
1.0124304701940379
1.0124304701936881
1.0124304703526086
1.0124304701936881
1.0124305031356613
1.012430470193687
1.0124316508531859
1.0229751088491967
1.0229751689094606
1.0229751088491996
1.0229751091359256
1.022975108849199
1.0229751088498242
1.022975108849199
1.0229751088491998
1.022975108849199
1.022975108849199
1.022975108849199
1.022975108849199
1.022975108849199
1.022975108849199
1.022975108849199
1.022975108849199
1.022975108849199
1.022975108849199
1.022975108849199
1.022975108849199
1.022975108849199
1.022975108849199
1.022975108849199
1.0229751088491998
1.022975108849199
1.0229751088498242
1.022975108849199
1.0229751091359256
1.0229751088491996
1.0229751689094606
1.0229751088491967
1.0229773699100257
1.0420833374417549
1.0420834449712324
1.0420833374417633
1.0420833379456702
1.0420833374417611
1.0420833374428391
1.0420833374417611
1.0420833374417622
1.0420833374417611
1.0420833374417611
1.0420833374417611
1.0420833374417611
1.0420833374417611
1.0420833374417611
1.0420833374417611
1.0420833374417611
1.0420833374417611
1.0420833374417611
1.0420833374417611
1.0420833374417611
1.0420833374417611
1.0420833374417611
1.0420833374417611
1.0420833374417622
1.0420833374417611
1.0420833374428391
1.0420833374417611
1.0420833379456702
1.0420833374417633
1.0420834449712324
1.0420833374417549
1.0420877279156189
1.0758495460402622
1.0758497324339731
1.0758495460402828
1.0758495468862734
1.0758495460402757
1.0758495460420276
1.0758495460402757
1.0758495460402773
1.0758495460402757
1.0758495460402757
1.0758495460402757
1.0758495460402757
1.0758495460402757
1.0758495460402757
1.0758495460402757
1.0758495460402757
1.0758495460402757
1.0758495460402757
1.0758495460402757
1.0758495460402757
1.0758495460402757
1.0758495460402757
1.0758495460402757
1.0758495460402773
1.0758495460402757
1.0758495460420276
1.0758495460402757
1.0758495468862734
1.0758495460402828
1.0758497324339731
1.0758495460402622
1.0758581800212434
1.132947326495138
1.1329476324358809
1.1329473264951813
1.1329473278132913
1.1329473264951646
1.1329473264977541
1.1329473264951646
1.1329473264951675
1.1329473264951646
1.1329473264951646
1.1329473264951646
1.1329473264951646
1.1329473264951646
1.1329473264951646
1.1329473264951646
1.1329473264951646
1.1329473264951646
1.1329473264951646
1.1329473264951646
1.1329473264951646
1.1329473264951646
1.1329473264951646
1.1329473264951646
1.1329473264951675
1.1329473264951646
1.1329473264977541
1.1329473264951646
1.1329473278132913
1.1329473264951813
1.1329476324358809
1.132947326495138
1.1329642401978293
1.2226685195617621
1.2226689800243749
1.2226685195618399
1.2226685213984319
1.2226685195618048
1.2226685195651434
1.2226685195618048
1.2226685195618079
1.2226685195618048
1.2226685195618048
1.2226685195618048
1.2226685195618048
1.2226685195618048
1.2226685195618048
1.2226685195618048
1.2226685195618048
1.2226685195618048
1.2226685195618048
1.2226685195618048
1.2226685195618048
1.2226685195618048
1.2226685195618048
1.2226685195618048
1.2226685195618079
1.2226685195618048
1.2226685195651434
1.2226685195618048
1.2226685213984319
1.2226685195618399
1.2226689800243749
1.2226685195617621
1.2227001388253087
1.3485923276782503
1.3485929389235762
1.3485923276783609
1.3485923298854186
1.3485923276783056
1.3485923276819352
1.3485923276783052
1.3485923276783085
1.3485923276783052
1.3485923276783052
1.3485923276783052
1.3485923276783052
1.3485923276783052
1.3485923276783052
1.3485923276783052
1.3485923276783052
1.3485923276783052
1.3485923276783052
1.3485923276783052
1.3485923276783052
1.3485923276783052
1.3485923276783052
1.3485923276783052
1.3485923276783085
1.3485923276783052
1.3485923276819352
1.3485923276783056
1.3485923298854186
1.3485923276783609
1.3485929389235762
1.3485923276782503
1.3486451353339457
1.499926141017462
1.4999268323619599
1.499926141017583
1.4999261432573578
1.4999261410175195
1.4999261410208222
1.4999261410175195
1.4999261410175222
1.4999261410175195
1.4999261410175195
1.4999261410175195
1.4999261410175195
1.4999261410175195
1.4999261410175195
1.4999261410175195
1.4999261410175195
1.4999261410175195
1.4999261410175195
1.4999261410175195
1.4999261410175195
1.4999261410175195
1.4999261410175195
1.4999261410175195
1.4999261410175222
1.4999261410175195
1.4999261410208222
1.4999261410175195
1.4999261432573578
1.499926141017583
1.4999268323619599
1.499926141017462
1.5
1.6512714721030588
1.6512721276376034
1.6512714721031581
1.6512714740270062
1.651271472103107
1.6512714721056756
1.651271472103107
1.6512714721031085
1.651271472103107
1.651271472103107
1.651271472103107
1.651271472103107
1.651271472103107
1.651271472103107
1.651271472103107
1.651271472103107
1.651271472103107
1.651271472103107
1.651271472103107
1.651271472103107
1.651271472103107
1.651271472103107
1.651271472103107
1.6512714721031085
1.651271472103107
1.6512714721056756
1.651271472103107
1.6512714740270062
1.6512714721031581
1.6512721276376034
1.6512714721030588
1.6513548646660543
1.7772237984273156
1.7772243241662926
1.7772237984273798
1.7772237998567011
1.7772237984273491
1.7772237984291175
1.7772237984273491
1.7772237984273505
1.7772237984273491
1.7772237984273491
1.7772237984273491
1.7772237984273491
1.7772237984273491
1.7772237984273491
1.7772237984273491
1.7772237984273491
1.7772237984273491
1.7772237984273491
1.7772237984273491
1.7772237984273491
1.7772237984273491
1.7772237984273491
1.7772237984273491
1.7772237984273505
1.7772237984273491
1.7772237984291175
1.7772237984273491
1.7772237998567011
1.7772237984273798
1.7772243241662926
1.7772237984273156
1.7772998611746911
1.8669779207903117
1.8669782878544754
1.8669779207903474
1.8669779217379336
1.8669779207903332
1.8669779207914456
1.8669779207903332
1.8669779207903339
1.8669779207903332
1.8669779207903332
1.8669779207903332
1.8669779207903332
1.8669779207903332
1.8669779207903332
1.8669779207903332
1.8669779207903332
1.8669779207903332
1.8669779207903332
1.8669779207903332
1.8669779207903332
1.8669779207903332
1.8669779207903332
1.8669779207903332
1.8669779207903339
1.8669779207903332
1.8669779207914456
1.8669779207903332
1.8669779217379336
1.8669779207903474
1.8669782878544754
1.8669779207903117
1.8670357598021707
1.9241033995195105
1.9241036310200552
1.9241033995195271
1.9241034000984023
1.9241033995195214
1.9241033995201806
1.9241033995195214
1.9241033995195214
1.9241033995195214
1.9241033995195214
1.9241033995195214
1.9241033995195214
1.9241033995195214
1.9241033995195214
1.9241033995195214
1.9241033995195214
1.9241033995195214
1.9241033995195214
1.9241033995195214
1.9241033995195214
1.9241033995195214
1.9241033995195214
1.9241033995195214
1.9241033995195214
1.9241033995195214
1.9241033995201806
1.9241033995195214
1.9241034000984023
1.9241033995195271
1.9241036310200552
1.9241033995195105
1.9241418199787566
1.9578889422451657
1.9578890787379055
1.9578889422451722
1.9578889425802266
1.9578889422451704
1.9578889422455448
1.9578889422451704
1.9578889422451708
1.9578889422451704
1.9578889422451704
1.9578889422451704
1.9578889422451704
1.9578889422451704
1.9578889422451704
1.9578889422451704
1.9578889422451704
1.9578889422451704
1.9578889422451704
1.9578889422451704
1.9578889422451704
1.9578889422451704
1.9578889422451704
1.9578889422451704
1.9578889422451708
1.9578889422451704
1.9578889422455448
1.9578889422451704
1.9578889425802266
1.9578889422451722
1.9578890787379055
1.9578889422451657
1.9579122720843811
1.9770092212689192
1.977009298508783
1.977009221268921
1.9770092214565818
1.9770092212689201
1.9770092212691286
1.9770092212689201
1.9770092212689203
1.9770092212689201
1.9770092212689201
1.9770092212689201
1.9770092212689201
1.9770092212689201
1.9770092212689201
1.9770092212689201
1.9770092212689201
1.9770092212689201
1.9770092212689201
1.9770092212689201
1.9770092212689201
1.9770092212689201
1.9770092212689201
1.9770092212689201
1.9770092212689203
1.9770092212689201
1.9770092212691286
1.9770092212689201
1.9770092214565818
1.977009221268921
1.977009298508783
1.9770092212689192
1.9770226300899743
1.9875608842895831
1.9875609269978172
1.9875608842895844
1.9875608843927781
1.9875608842895842
1.9875608842896979
1.9875608842895842
1.9875608842895842
1.9875608842895842
1.9875608842895842
1.9875608842895842
1.9875608842895842
1.9875608842895842
1.9875608842895842
1.9875608842895842
1.9875608842895842
1.9875608842895842
1.9875608842895842
1.9875608842895842
1.9875608842895842
1.9875608842895842
1.9875608842895842
1.9875608842895842
1.9875608842895842
1.9875608842895842
1.9875608842896979
1.9875608842895842
1.9875608843927781
1.9875608842895844
1.9875609269978172
1.9875608842895831
1.9875683491468141
1.9933030669725789
1.9933030903148208
1.9933030669725791
1.9933030670288272
1.9933030669725791
1.9933030669726408
1.9933030669725791
1.9933030669725791
1.9933030669725791
1.9933030669725791
1.9933030669725791
1.9933030669725791
1.9933030669725791
1.9933030669725791
1.9933030669725791
1.9933030669725791
1.9933030669725791
1.9933030669725791
1.9933030669725791
1.9933030669725791
1.9933030669725791
1.9933030669725791
1.9933030669725791
1.9933030669725791
1.9933030669725791
1.9933030669726408
1.9933030669725791
1.9933030670288272
1.9933030669725791
1.9933030903148208
1.9933030669725789
1.993307149075715
1.9964041869868006
1.9964041996973307
1.9964041869868006
1.9964041870174019
1.9964041869868006
1.9964041869868348
1.9964041869868006
1.9964041869868006
1.9964041869868006
1.9964041869868006
1.9964041869868006
1.9964041869868006
1.9964041869868006
1.9964041869868006
1.9964041869868006
1.9964041869868006
1.9964041869868006
1.9964041869868006
1.9964041869868006
1.9964041869868006
1.9964041869868006
1.9964041869868006
1.9964041869868006
1.9964041869868006
1.9964041869868006
1.9964041869868348
1.9964041869868006
1.9964041870174019
1.9964041869868006
1.9964041996973307
1.9964041869868006
1.9964063974185799
1.9980720767723292
1.9980720837072252
1.9980720767723292
1.9980720767890425
1.9980720767723292
1.9980720767723474
1.9980720767723292
1.9980720767723292
1.9980720767723292
1.9980720767723292
1.9980720767723292
1.9980720767723292
1.9980720767723292
1.9980720767723292
1.9980720767723292
1.9980720767723292
1.9980720767723292
1.9980720767723292
1.9980720767723292
1.9980720767723292
1.9980720767723292
1.9980720767723292
1.9980720767723292
1.9980720767723292
1.9980720767723292
1.9980720767723474
1.9980720767723292
1.9980720767890425
1.9980720767723292
1.9980720837072252
1.9980720767723292
1.9980732653366724
1.9989671295159381
1.9989671333468972
1.9989671295159381
1.998967129525185
1.9989671295159381
1.9989671295159479
1.9989671295159381
1.9989671295159381
1.9989671295159381
1.9989671295159381
1.9989671295159381
1.9989671295159381
1.9989671295159381
1.9989671295159381
1.9989671295159381
1.9989671295159381
1.9989671295159381
1.9989671295159381
1.9989671295159381
1.9989671295159381
1.9989671295159381
1.9989671295159381
1.9989671295159381
1.9989671295159381
1.9989671295159381
1.9989671295159479
1.9989671295159381
1.998967129525185
1.9989671295159381
1.9989671333468972
1.9989671295159381
1.9989677689632452
1.9994477004134168
1.9994476985891561
1.999447700413433
1.9994477004120805
1.999447700413433
1.9994477004134341
1.999447700413433
1.999447700413433
1.999447700413433
1.999447700413433
1.999447700413433
1.999447700413433
1.999447700413433
1.999447700413433
1.999447700413433
1.999447700413433
1.999447700413433
1.999447700413433
1.999447700413433
1.999447700413433
1.999447700413433
1.999447700413433
1.999447700413433
1.999447700413433
1.999447700413433
1.9994477004134341
1.999447700413433
1.9994477004120805
1.999447700413433
1.9994476985891561
1.9994477004134168
1.9994472213630763
1.9997038557671276
1.9997038570665473
1.9997038557671276
1.9997038557703026
1.9997038557671276
1.9997038557671314
1.9997038557671276
1.9997038557671276
1.9997038557671276
1.9997038557671276
1.9997038557671276
1.9997038557671276
1.9997038557671276
1.9997038557671276
1.9997038557671276
1.9997038557671276
1.9997038557671276
1.9997038557671276
1.9997038557671276
1.9997038557671276
1.9997038557671276
1.9997038557671276
1.9997038557671276
1.9997038557671276
1.9997038557671276
1.9997038557671314
1.9997038557671276
1.9997038557703026
1.9997038557671276
1.9997038570665473
1.9997038557671276
1.999704042886487
1.9999570307229233
1.9999562115592171
1.9999570307230334
1.9999570287321162
1.9999570307229682
1.9999570307207737
1.9999570307229682
1.9999570307229666
1.9999570307229682
1.9999570307229682
1.9999570307229682
1.9999570307229682
1.9999570307229682
1.9999570307229682
1.9999570307229682
1.9999570307229682
1.9999570307229682
1.9999570307229682
1.9999570307229682
1.9999570307229682
1.9999570307229682
1.9999570307229682
1.9999570307229682
1.9999570307229666
1.9999570307229682
1.9999570307207737
1.9999570307229682
1.9999570287321162
1.9999570307230334
1.9999562115592171
1.9999570307229233
1.9998415637808975
1.9999151889582765
1.9999151889582765
1.9999151889582765
1.9999151889582765
1.9999151889582765
1.9999151889582765
1.9999151889582765
1.9999151889582765
1.9999151889582765
1.9999151889582765
1.9999151889582765
1.9999151889582765
1.9999151889582765
1.9999151889582765
1.9999151889582765
1.9999151889582765
1.9999151889582765
1.9999151889582765
1.9999151889582765
1.9999151889582765
1.9999151889582765
1.9999151889582765
1.9999151889582765
1.9999151889582765
1.9999151889582765
1.9999151889582765
1.9999151889582765
1.9999151889582765
1.9999151889582765
1.9999151889582765
1.9999151889582765
1.9999151889582765
1.0007127439568473
1.0007078607906823
1.0007127439659371
1.0007127161024785
1.0007127439610017
1.0007127438883816
1.0007127439609933
1.0007127439608947
1.0007127439609933
1.0007127439609933
1.0007127439609933
1.0007127439609933
1.0007127439609933
1.0007127439609933
1.0007127439609933
1.0007127439609933
1.0007127439609933
1.0007127439609933
1.0007127439609933
1.0007127439609933
1.0007127439609933
1.0007127439609933
1.0007127439609933
1.0007127439608947
1.0007127439609933
1.0007127438883816
1.0007127439610017
1.0007127161024785
1.0007127439659371
1.0007078607906823
1.0007127439568473
1.0000453978687025
1.000084938032394
1.0000849365714333
1.0000849380323946
1.0000849380248462
1.0000849380323944
1.0000849380323764
1.0000849380323944
1.0000849380323944
1.0000849380323944
1.0000849380323944
1.0000849380323944
1.0000849380323944
1.0000849380323944
1.0000849380323944
1.0000849380323944
1.0000849380323944
1.0000849380323944
1.0000849380323944
1.0000849380323944
1.0000849380323944
1.0000849380323944
1.0000849380323944
1.0000849380323944
1.0000849380323944
1.0000849380323944
1.0000849380323764
1.0000849380323944
1.0000849380248462
1.0000849380323946
1.0000849365714333
1.000084938032394
1.0000848110417238
1.000163225656723
1.0001631706079415
1.0001632256579738
1.0001632254432904
1.0001632256579678
1.0001632256575788
1.0001632256579678
1.0001632256579676
1.0001632256579678
1.0001632256579678
1.0001632256579678
1.0001632256579678
1.0001632256579678
1.0001632256579678
1.0001632256579678
1.0001632256579678
1.0001632256579678
1.0001632256579678
1.0001632256579678
1.0001632256579678
1.0001632256579678
1.0001632256579678
1.0001632256579678
1.0001632256579676
1.0001632256579678
1.0001632256575788
1.0001632256579678
1.0001632254432904
1.0001632256579738
1.0001631706079415
1.000163225656723
1.0001584362191025
1.0002957326956468
1.0002957338072147
1.000295732695647
1.0002957327009478
1.000295732695647
1.0002957326956583
1.000295732695647
1.000295732695647
1.000295732695647
1.000295732695647
1.000295732695647
1.000295732695647
1.000295732695647
1.000295732695647
1.000295732695647
1.000295732695647
1.000295732695647
1.000295732695647
1.000295732695647
1.000295732695647
1.000295732695647
1.000295732695647
1.000295732695647
1.000295732695647
1.000295732695647
1.0002957326956583
1.000295732695647
1.0002957327009478
1.000295732695647
1.0002957338072147
1.0002957326956468
1.0002959571135133
1.0005523841460491
1.0005523860628773
1.0005523841460513
1.0005523841556929
1.0005523841460511
1.0005523841460728
1.0005523841460511
1.0005523841460515
1.0005523841460511
1.0005523841460511
1.0005523841460511
1.0005523841460511
1.0005523841460511
1.0005523841460511
1.0005523841460511
1.0005523841460511
1.0005523841460511
1.0005523841460511
1.0005523841460511
1.0005523841460511
1.0005523841460511
1.0005523841460511
1.0005523841460511
1.0005523841460515
1.0005523841460511
1.0005523841460728
1.0005523841460511
1.0005523841556929
1.0005523841460513
1.0005523860628773
1.0005523841460491
1.0005527786369237
1.001031442269138
1.0010314462778662
1.001031442269138
1.0010314422884512
1.001031442269138
1.0010314422691802
1.001031442269138
1.001031442269138
1.001031442269138
1.001031442269138
1.001031442269138
1.001031442269138
1.001031442269138
1.001031442269138
1.001031442269138
1.001031442269138
1.001031442269138
1.001031442269138
1.001031442269138
1.001031442269138
1.001031442269138
1.001031442269138
1.001031442269138
1.001031442269138
1.001031442269138
1.0010314422691802
1.001031442269138
1.0010314422884512
1.001031442269138
1.0010314462778662
1.001031442269138
1.001032231036755
1.0019252631607209
1.0019252706598536
1.0019252631607209
1.0019252631969182
1.0019252631607209
1.0019252631608004
1.0019252631607209
1.0019252631607209
1.0019252631607209
1.0019252631607209
1.0019252631607209
1.0019252631607209
1.0019252631607209
1.0019252631607209
1.0019252631607209
1.0019252631607209
1.0019252631607209
1.0019252631607209
1.0019252631607209
1.0019252631607209
1.0019252631607209
1.0019252631607209
1.0019252631607209
1.0019252631607209
1.0019252631607209
1.0019252631608004
1.0019252631607209
1.0019252631969182
1.0019252631607209
1.0019252706598536
1.0019252631607209
1.0019267346633276
1.0035908606109034
1.0035908745938804
1.0035908606109036
1.0035908606783925
1.0035908606109036
1.0035908606110524
1.0035908606109036
1.0035908606109036
1.0035908606109036
1.0035908606109036
1.0035908606109036
1.0035908606109036
1.0035908606109036
1.0035908606109036
1.0035908606109036
1.0035908606109036
1.0035908606109036
1.0035908606109036
1.0035908606109036
1.0035908606109036
1.0035908606109036
1.0035908606109036
1.0035908606109036
1.0035908606109036
1.0035908606109036
1.0035908606110524
1.0035908606109036
1.0035908606783925
1.0035908606109036
1.0035908745938804
1.0035908606109034
1.0035936025814203
1.006687753711438
1.0066877796756655
1.0066877537114385
1.0066877538365024
1.0066877537114383
1.0066877537117134
1.0066877537114383
1.0066877537114387
1.0066877537114383
1.0066877537114383
1.0066877537114383
1.0066877537114383
1.0066877537114383
1.0066877537114383
1.0066877537114383
1.0066877537114383
1.0066877537114383
1.0066877537114383
1.0066877537114383
1.0066877537114383
1.0066877537114383
1.0066877537114383
1.0066877537114383
1.0066877537114387
1.0066877537114383
1.0066877537117134
1.0066877537114383
1.0066877538365024
1.0066877537114385
1.0066877796756655
1.006687753711438
1.006692850924285
1.0124222160750309
1.012422263974383
1.0124222160750331
1.0124222163046694
1.0124222160750327
1.0124222160755343
1.0124222160750327
1.0124222160750334
1.0124222160750327
1.0124222160750327
1.0124222160750327
1.0124222160750327
1.0124222160750327
1.0124222160750327
1.0124222160750327
1.0124222160750327
1.0124222160750327
1.0124222160750327
1.0124222160750327
1.0124222160750327
1.0124222160750327
1.0124222160750327
1.0124222160750327
1.0124222160750334
1.0124222160750327
1.0124222160755343
1.0124222160750327
1.0124222163046694
1.0124222160750331
1.012422263974383
1.0124222160750309
1.0124316508531859
1.0229600449148331
1.022960132288474
1.0229600449148382
1.0229600453299077
1.0229600449148366
1.0229600449157361
1.0229600449148366
1.0229600449148373
1.0229600449148366
1.0229600449148366
1.0229600449148366
1.0229600449148366
1.0229600449148366
1.0229600449148366
1.0229600449148366
1.0229600449148366
1.0229600449148366
1.0229600449148366
1.0229600449148366
1.0229600449148366
1.0229600449148366
1.0229600449148366
1.0229600449148366
1.0229600449148373
1.0229600449148366
1.0229600449157361
1.0229600449148366
1.0229600453299077
1.0229600449148382
1.022960132288474
1.0229600449148331
1.0229773699100257
1.0420563753388854
1.0420565315582584
1.0420563753388994
1.0420563760687422
1.0420563753388947
1.0420563753404501
1.0420563753388947
1.0420563753388969
1.0420563753388947
1.0420563753388947
1.0420563753388947
1.0420563753388947
1.0420563753388947
1.0420563753388947
1.0420563753388947
1.0420563753388947
1.0420563753388947
1.0420563753388947
1.0420563753388947
1.0420563753388947
1.0420563753388947
1.0420563753388947
1.0420563753388947
1.0420563753388969
1.0420563753388947
1.0420563753404501
1.0420563753388947
1.0420563760687422
1.0420563753388994
1.0420565315582584
1.0420563753388854
1.0420877279156189
1.0758029199267327
1.0758031896059559
1.0758029199267665
1.0758029211504423
1.0758029199267536
1.0758029199292858
1.0758029199267536
1.0758029199267563
1.0758029199267536
1.0758029199267536
1.0758029199267536
1.0758029199267536
1.0758029199267536
1.0758029199267536
1.0758029199267536
1.0758029199267536
1.0758029199267536
1.0758029199267536
1.0758029199267536
1.0758029199267536
1.0758029199267536
1.0758029199267536
1.0758029199267536
1.0758029199267563
1.0758029199267536
1.0758029199292858
1.0758029199267536
1.0758029211504423
1.0758029199267665
1.0758031896059559
1.0758029199267327
1.0758581800212434
1.1328712585693719
1.1328716971579609
1.13287125856944
1.1328712604658275
1.1328712585694056
1.1328712585731449
1.1328712585694056
1.1328712585694094
1.1328712585694056
1.1328712585694056
1.1328712585694056
1.1328712585694056
1.1328712585694056
1.1328712585694056
1.1328712585694056
1.1328712585694056
1.1328712585694056
1.1328712585694056
1.1328712585694056
1.1328712585694056
1.1328712585694056
1.1328712585694056
1.1328712585694056
1.1328712585694094
1.1328712585694056
1.1328712585731449
1.1328712585694056
1.1328712604658275
1.13287125856944
1.1328716971579609
1.1328712585693719
1.1329642401978293
1.2225553457491416
1.2225559938670094
1.2225553457492553
1.2225553483541121
1.2225553457491862
1.2225553457539586
1.2225553457491862
1.2225553457491909
1.2225553457491862
1.2225553457491862
1.2225553457491862
1.2225553457491862
1.2225553457491862
1.2225553457491862
1.2225553457491862
1.2225553457491862
1.2225553457491862
1.2225553457491862
1.2225553457491862
1.2225553457491862
1.2225553457491862
1.2225553457491862
1.2225553457491862
1.2225553457491909
1.2225553457491862
1.2225553457539586
1.2225553457491862
1.2225553483541121
1.2225553457492553
1.2225559938670094
1.2225553457491416
1.2227001388253087
1.3484447560038182
1.3484455892838658
1.3484447560039714
1.3484447590414017
1.3484447560038677
1.3484447560089114
1.3484447560038675
1.3484447560038719
1.3484447560038675
1.3484447560038675
1.3484447560038675
1.3484447560038675
1.3484447560038675
1.3484447560038675
1.3484447560038675
1.3484447560038675
1.3484447560038675
1.3484447560038675
1.3484447560038675
1.3484447560038675
1.3484447560038675
1.3484447560038675
1.3484447560038675
1.3484447560038719
1.3484447560038675
1.3484447560089114
1.3484447560038677
1.3484447590414017
1.3484447560039714
1.3484455892838658
1.3484447560038182
1.3486451353339457
1.4997631198121324
1.4997640205662337
1.4997631198122896
1.4997631227507855
1.4997631198121806
1.4997631198165429
1.4997631198121806
1.4997631198121844
1.4997631198121806
1.4997631198121806
1.4997631198121806
1.4997631198121806
1.4997631198121806
1.4997631198121806
1.4997631198121806
1.4997631198121806
1.4997631198121806
1.4997631198121806
1.4997631198121806
1.4997631198121806
1.4997631198121806
1.4997631198121806
1.4997631198121806
1.4997631198121844
1.4997631198121806
1.4997631198165429
1.4997631198121806
1.4997631227507855
1.4997631198122896
1.4997640205662337
1.4997631198121324
1.5
1.6511210799508267
1.6511218936965475
1.6511210799509517
1.6511210823429237
1.651121079950872
1.6511210799540657
1.6511210799508718
1.6511210799508735
1.6511210799508718