# vtk DataFile Version 3.0
Euler density step 484
ASCII
DATASET STRUCTURED_POINTS
DIMENSIONS 32 32 32
ORIGIN 0 0 0
SPACING 0.3125 0.3125 0.3125
POINT_DATA 32768
SCALARS density double 1
LOOKUP_TABLE default
1.0087320636880883
1.0019260351366306
1.0087629398471465
1.0039758415427507
1.0087722775348826
1.0054869306757683
1.0087725756630603
1.0067906835833249
1.0087679943300805
1.0078579295190724
1.0087636806559541
1.0084623168609255
1.0087619712469726
1.0086876078370242
1.0087615936784433
1.0087354625588965
1.0087615936784433
1.0086876078370242
1.0087619712469726
1.0084623168609255
1.0087636806559541
1.0078579295190724
1.0087679943300805
1.0067906835833249
1.0087725756630603
1.0054869306757683
1.0087722775348826
1.0039758415427507
1.0087629398471465
1.0019260351366306
1.0087320636880883
1.0000453978687025
0.99992344577842263
1.0000355601577657
0.99992331474543339
0.99998823629102551
0.99992327366956046
0.99995458041233409
0.99992327687805427
0.9999359493926957
0.99992329008953906
0.99992766111979159
0.99992330104239946
0.99992455638764899
0.99992330579328204
0.99992360217365595
0.99992330700078624
0.99992341172091004
0.99992330700078624
0.99992360217365595
0.99992330579328204
0.99992455638764899
0.99992330104239946
0.99992766111979159
0.99992329008953906
0.9999359493926957
0.99992327687805427
0.99995458041233409
0.99992327366956046
0.99998823629102551
0.99992331474543339
1.0000355601577657
0.99992344577842263
1.0000848110417238
1.0081040572149202
1.002164627394472
1.0081218122424176
1.0038538098073762
1.008130915648126
1.0051716762425156
1.0081329348033501
1.0063808702891701
1.008129788034561
1.0073638978008592
1.0081267188201539
1.007888875696805
1.0081256001961958
1.008070977537032
1.0081253745667202
1.0081074020989196
1.0081253745667202
1.008070977537032
1.0081256001961958
1.007888875696805
1.0081267188201539
1.0073638978008592
1.008129788034561
1.0063808702891701
1.0081329348033501
1.0051716762425156
1.008130915648126
1.0038538098073762
1.0081218122424176
1.002164627394472
1.0081040572149202
1.0001584362191025
0.99988013245254181
1.0001652716794607
0.99988014518300028
1.0000497533391262
0.99988013206033055
0.99996373007417705
0.99988011983924507
0.99991328263639045
0.99988012054366682
0.99989057995140995
0.99988012597473075
0.99988273097191593
0.99988012872345366
0.99988064973502877
0.99988012940575099
0.99988028839746246
0.99988012940575099
0.99988064973502877
0.99988012872345366
0.99988273097191593
0.99988012597473075
0.99989057995140995
0.99988012054366682
0.99991328263639045
0.99988011983924507
0.99996373007417705
0.99988013206033055
1.0000497533391262
0.99988014518300028
1.0001652716794607
0.99988013245254181
1.0002959571135133
1.0066065759907388
1.0019018967723681
1.0066148349538895
1.0031071259176811
1.0066213407113296
1.0042028150919398
1.0066232169164242
1.0053132554753328
1.0066214796745474
1.0061172711918465
1.0066200230531994
1.006482532387375
1.0066195741738235
1.0065917196164014
1.0066194950407952
1.0066112606690529
1.0066194950407952
1.0065917196164014
1.0066195741738235
1.006482532387375
1.0066200230531994
1.0061172711918465
1.0066214796745474
1.0053132554753328
1.0066232169164242
1.0042028150919398
1.0066213407113296
1.0031071259176811
1.0066148349538895
1.0019018967723681
1.0066065759907388
1.0005527786369237
1.000165239982022
1.0007725675889136
1.0001653724591966
1.0005384352117552
1.0001654539124258
1.0003566212182291
1.0001654582678718
1.0002428648509798
1.0001654463408354
1.0001895150844833
1.000165441997626
1.0001711746480009
1.0001654413660104
1.0001665166961464
1.0001654413322261
1.0001657489563378
1.0001654413322261
1.0001665166961464
1.0001654413660104
1.0001711746480009
1.000165441997626
1.0001895150844833
1.0001654463408354
1.0002428648509798
1.0001654582678718
1.0003566212182291
1.0001654539124258
1.0005384352117552
1.0001653724591966
1.0007725675889136
1.000165239982022
1.001032231036755
1.0062249628742628
1.0029011125112568
1.0062287581598135
1.0038261075606842
1.0062324229323907
1.004760963471184
1.0062333932997836
1.0055655416590112
1.0062328173710973
1.0060183832547513
1.0062324110598964
1.0061829748191591
1.0062323033504947
1.0062237503192022
1.0062322862907995
1.0062300858566666
1.0062322862907995
1.0062237503192022
1.0062323033504947
1.0061829748191591
1.0062324110598964
1.0060183832547513
1.0062328173710973
1.0055655416590112
1.0062333932997836
1.004760963471184
1.0062324229323907
1.0038261075606842
1.0062287581598135
1.0029011125112568
1.0062249628742628
1.0019267346633276
1.0020558063280931
1.0031678663568155
1.0020561812638076
1.0027712461255169
1.0020564640198935
1.0024462038546171
1.0020565028350126
1.0022240344896545
1.0020564596190444
1.0021110287646375
1.0020564363838882
1.0020698684669
1.0020564308637845
1.0020590106884875
1.002056430049751
1.0020571804647258
1.002056430049751
1.0020590106884875
1.0020564308637845
1.0020698684669
1.0020564363838882
1.0021110287646375
1.0020564596190444
1.0022240344896545
1.0020565028350126
1.0024462038546171
1.0020564640198935
1.0027712461255169
1.0020561812638076
1.0031678663568155
1.0020558063280931
1.0035936025814203
1.0084642836074187
1.0072373776606813
1.0084661922805702
1.0077323531696425
1.0084679034403488
1.0081527035943232
1.0084683171459707
1.0083888004543449
1.0084681824342447
1.0084618454399124
1.008468086159138
1.0084709015624227
1.0084680614311616
1.0084693284257147
1.0084680575996998
1.0084685901312065
1.0084680575996998
1.0084693284257147
1.0084680614311616
1.0084709015624227
1.008468086159138
1.0084618454399124
1.0084681824342447
1.0083888004543449
1.0084683171459707
1.0081527035943232
1.0084679034403488
1.0077323531696425
1.0084661922805702
1.0072373776606813
1.0084642836074187
1.006692850924285
1.010048833334585
1.0118254423783994
1.0100498231711663
1.0112354608070371
1.0100505357742517
1.0107342054014083
1.010050607847468
1.0103627243518669
1.0100504505782126
1.0101575625451145
1.010050364436379
1.0100778576268656
1.0100503429925793
1.0100558050142652
1.0100503397006191
1.0100519694405947
1.0100503397006191
1.0100558050142652
1.0100503429925793
1.0100778576268656
1.010050364436379
1.0101575625451145
1.0100504505782126
1.0103627243518669
1.010050607847468
1.0107342054014083
1.0100505357742517
1.0112354608070371
1.0100498231711663
1.0118254423783994
1.010048833334585
1.0124316508531859
1.0218885255714847
1.0228744254738573
1.0218903825270484
1.022694266631841
1.0218916835565888
1.0224701761749557
1.0218918499613865
1.0222054783113173
1.0218915953657284
1.0220121126653154
1.0218914465046607
1.0219246914093818
1.02189140801654
1.0218983335088176
1.0218914019577918
1.0218935311267126
1.0218914019577918
1.0218983335088176
1.02189140801654
1.0219246914093818
1.0218914465046607
1.0220121126653154
1.0218915953657284
1.0222054783113173
1.0218918499613865
1.0224701761749557
1.0218916835565888
1.022694266631841
1.0218903825270484
1.0228744254738573
1.0218885255714847
1.0229773699100257
1.0387072319405204
1.0412905972086386
1.0387098382063549
1.040453805928252
1.0387113178899232
1.0397535898962871
1.0387113219428421
1.039208802503951
1.0387108497838899
1.038888224281735
1.0387105992638377
1.0387574322122455
1.0387105359077458
1.0387200264630727
1.0387105260101701
1.0387133933968498
1.0387105260101701
1.0387200264630727
1.0387105359077458
1.0387574322122455
1.0387105992638377
1.038888224281735
1.0387108497838899
1.039208802503951
1.0387113219428421
1.0397535898962871
1.0387113178899232
1.040453805928252
1.0387098382063549
1.0412905972086386
1.0387072319405204
1.0420877279156189
1.0724481721008945
1.0751724546681176
1.0724524748233506
1.0743407368178315
1.0724544397704741
1.0736321423097501
1.0724542926850671
1.0730371034136237
1.0724535430901303
1.072665901786426
1.0724531566631905
1.0725097959328149
1.0724530593592869
1.0724645628889808
1.0724530441856752
1.0724565115656128
1.0724530441856752
1.0724645628889808
1.0724530593592869
1.0725097959328149
1.0724531566631905
1.072665901786426
1.0724535430901303
1.0730371034136237
1.0724542926850671
1.0736321423097501
1.0724544397704741
1.0743407368178315
1.0724524748233506
1.0751724546681176
1.0724481721008945
1.0758581800212434
1.1282273810852588
1.1319114745940548
1.1282346081361274
1.130660299819777
1.1282369541659949
1.1296974616255726
1.128236407318528
1.1289452879254955
1.1282352310435937
1.1284899714197578
1.1282346615657006
1.1283016489771851
1.1282345219480339
1.1282479011007032
1.1282345005633352
1.1282384637481973
1.1282345005633352
1.1282479011007032
1.1282345219480339
1.1283016489771851
1.1282346615657006
1.1284899714197578
1.1282352310435937
1.1289452879254955
1.128236407318528
1.1296974616255726
1.1282369541659949
1.130660299819777
1.1282346081361274
1.1319114745940548
1.1282273810852588
1.1329642401978293
1.2171978142635547
1.2214724602668401
1.2172094549453409
1.2199888317087149
1.2172118336955302
1.2188953356361529
1.2172106157811537
1.218030649795506
1.2172088809640851
1.2175012864222134
1.2172080940166943
1.2172836394552031
1.2172079083328551
1.2172226158387696
1.2172078807623847
1.2172121165249343
1.2172078807623847
1.2172226158387696
1.2172079083328551
1.2172836394552031
1.2172080940166943
1.2175012864222134
1.2172088809640851
1.218030649795506
1.2172106157811537
1.2188953356361529
1.2172118336955302
1.2199888317087149
1.2172094549453409
1.2214724602668401
1.2171978142635547
1.2227001388253087
1.3418276445849528
1.3467933208473948
1.3418445988156478
1.3450325890391253
1.3418464147982188
1.3437789982424331
1.3418441990722914
1.3427797990155181
1.341841776547271
1.3421687900361232
1.341840757510012
1.3419226558197876
1.3418405300284737
1.3418558464536587
1.3418404978202971
1.3418447249574319
1.3418404978202971
1.3418558464536587
1.3418405300284737
1.3419226558197876
1.341840757510012
1.3421687900361232
1.341841776547271
1.3427797990155181
1.3418441990722914
1.3437789982424331
1.3418464147982188
1.3450325890391253
1.3418445988156478
1.3467933208473948
1.3418276445849528
1.3486451353339457
1.4915373177427365
1.4968682081112217
1.4915589577785402
1.4950375686147255
1.4915594783040418
1.4937039674600112
1.4915560571599742
1.4925886509302047
1.491552929213197
1.4919040430830934
1.4915517153312094
1.4916360119850385
1.4915514624520765
1.4915664103766633
1.4915514288100578
1.4915553294585253
1.4915514288100578
1.4915664103766633
1.4915514624520765
1.4916360119850385
1.4915517153312094
1.4919040430830934
1.491552929213197
1.4925886509302047
1.4915560571599742
1.4937039674600112
1.4915594783040418
1.4950375686147255
1.4915589577785402
1.4968682081112217
1.4915373177427365
1.5
1.6409155341676247
1.6463841431505566
1.6409399211557385
1.6446178947416921
1.640939202524242
1.6432457795351796
1.6409347653820838
1.6420287398610542
1.640931126201459
1.6412882323980533
1.6409298308667664
1.6410109073655306
1.6409295827824235
1.640943039695415
1.6409295522445091
1.6409328340471596
1.6409295522445091
1.640943039695415
1.6409295827824235
1.6410109073655306
1.6409298308667664
1.6412882323980533
1.640931126201459
1.6420287398610542
1.6409347653820838
1.6432457795351796
1.640939202524242
1.6446178947416921
1.6409399211557385
1.6463841431505566
1.6409155341676247
1.6513548646660543
1.765764271424356
1.7711909865318514
1.7657882533655367
1.7695712802663577
1.7657876946794246
1.7681808575540856
1.7657829166055938
1.7668807353100602
1.7657792038698856
1.7661174116438971
1.7657780012255482
1.7658496903062606
1.7657777917436368
1.7657888330120539
1.765777768064811
1.7657802699403826
1.765777768064811
1.7657888330120539
1.7657777917436368
1.7658496903062606
1.7657780012255482
1.7661174116438971
1.7657792038698856
1.7668807353100602
1.7657829166055938
1.7681808575540856
1.7657876946794246
1.7695712802663577
1.7657882533655367
1.7711909865318514
1.765764271424356
1.7772998611746911
1.855590580711884
1.8610345511027544
1.8556120227998303
1.8594662999449363
1.8556125857626797
1.8579958062198692
1.8556081441093519
1.8566376403841398
1.8556048622683714
1.8558996117856317
1.8556039023060544
1.8556618272073426
1.8556037505204817
1.8556120176066215
1.8556037347350121
1.855605477687887
1.8556037347350121
1.8556120176066215
1.8556037505204817
1.8556618272073426
1.8556039023060544
1.8558996117856317
1.8556048622683714
1.8566376403841398
1.8556081441093519
1.8579958062198692
1.8556125857626797
1.8594662999449363
1.8556120227998303
1.8610345511027544
1.855590580711884
1.8670357598021707
1.914060505058637
1.9192743580127918
1.914077878702402
1.9178154218843937
1.9140793652623109
1.9162934484196352
1.9140757825647892
1.9149643203485938
1.9140732900323119
1.9143087541218193
1.9140726302263316
1.9141156170269644
1.9140725348415366
1.9140782530828353
1.9140725256377791
1.9140736555663644
1.9140725256377791
1.9140782530828353
1.9140725348415366
1.9141156170269644
1.9140726302263316
1.9143087541218193
1.9140732900323119
1.9149643203485938
1.9140757825647892
1.9162934484196352
1.9140793652623109
1.9178154218843937
1.914077878702402
1.9192743580127918
1.914060505058637
1.9241418199787566
1.9487474676653378
1.9539502883373658
1.9487604863147114
1.9523197008996234
1.9487622332438475
1.9506986919339842
1.9487596763104233
1.9494712202790616
1.9487580270809768
1.9489324336538691
1.9487576299891787
1.9487873682442045
1.9487575769871226
1.9487612960792129
1.9487575721940431
1.9487582677317419
1.9487575721940431
1.9487612960792129
1.9487575769871226
1.9487873682442045
1.9487576299891787
1.9489324336538691
1.9487580270809768
1.9494712202790616
1.9487596763104233
1.9506986919339842
1.9487622332438475
1.9523197008996234
1.9487604863147114
1.9539502883373658
1.9487474676653378
1.9579122720843811
1.9705945713715631
1.9745274644949331
1.9706032447217012
1.9733548695846135
1.9706048656126014
1.9720593084621274
1.9706033639016458
1.9711108741000316
1.9706024293913169
1.9707203379826244
1.9706022194288118
1.9706213480073105
1.9706021930445738
1.9706044780643506
1.97060219077643
1.9706026009173221
1.97060219077643
1.9706044780643506
1.9706021930445738
1.9706213480073105
1.9706022194288118
1.9707203379826244
1.9706024293913169
1.9711108741000316
1.9706033639016458
1.9720593084621274
1.9706048656126014
1.9733548695846135
1.9706032447217012
1.9745274644949331
1.9705945713715631
1.9770226300899743
1.9811221271394599
1.9851677566644437
1.9811276237429141
1.9836285618833425
1.9811287315260366
1.9822900867319442
1.9811278626686908
1.9814945741144436
1.9811273682067443
1.9812064931333899
1.9811272658059023
1.9811393955901129
1.9811272537165783
1.9811286379323747
1.981127252726095
1.9811274920781243
1.981127252726095
1.9811286379323747
1.9811272537165783
1.9811393955901129
1.9811272658059023
1.9812064931333899
1.9811273682067443
1.9814945741144436
1.9811278626686908
1.9822900867319442
1.9811287315260366
1.9836285618833425
1.9811276237429141
1.9851677566644437
1.9811221271394599
1.9875683491468141
1.9916805194969971
1.9926382233272402
1.9916844094396717
1.9924052719965741
1.9916855361370485
1.9920931272526727
1.991685196091995
1.9918315995933931
1.9916849669446686
1.9917191190018877
1.9916849188033663
1.9916904102547037
1.9916849130812142
1.9916855588290245
1.9916849126137233
1.9916850263688095
1.9916849126137233
1.9916855588290245
1.9916849130812142
1.9916904102547037
1.9916849188033663
1.9917191190018877
1.9916849669446686
1.9918315995933931
1.991685196091995
1.9920931272526727
1.9916855361370485
1.9924052719965741
1.9916844094396717
1.9926382233272402
1.9916805194969971
1.993307149075715
1.9926727428812336
1.9950364331301855
1.9926744121411761
1.9939968906514554
1.9926747964330966
1.9932192175642067
1.9926746107270819
1.9928293017590792
1.9926745134760262
1.9927051819715578
1.992674495493457
1.9926788900693742
1.9926744935630676
1.9926749681562379
1.9926744934170204
1.9926745718814785
1.9926744934170204
1.9926749681562379
1.9926744935630676
1.9926788900693742
1.992674495493457
1.9927051819715578
1.9926745134760262
1.9928293017590792
1.9926746107270819
1.9932192175642067
1.9926747964330966
1.9939968906514554
1.9926744121411761
1.9950364331301855
1.9926727428812336
1.9964063974185799
2.0006464820681424
1.9985171834191828
2.000651641545919
1.9991553400336286
2.0006531813638726
1.9999472410209553
2.0006525535358852
2.0004440851301437
2.0006521656811875
2.0006117466524178
2.0006520864858701
2.000646619451095
2.0006520771360874
2.0006515323121556
2.0006520763645752
2.0006519943413847
2.0006520763645752
2.0006515323121556
2.0006520771360874
2.000646619451095
2.0006520864858701
2.0006117466524178
2.0006521656811875
2.0004440851301437
2.0006525535358852
1.9999472410209553
2.0006531813638726
1.9991553400336286
2.000651641545919
1.9985171834191828
2.0006464820681424
1.9980732653366724
1.997273825334803
1.9983261822882936
1.997274185022895
1.9978228301585754
1.9972742536261852
1.9974889534802889
1.9972742364348108
1.9973340216921243
1.9972742333226767
1.9972860677192663
1.9972742341051375
1.9972759412700269
1.9972742343600505
1.9972744204577819
1.997274234393337
1.9972742654339977
1.997274234393337
1.9972744204577819
1.9972742343600505
1.9972759412700269
1.9972742341051375
1.9972860677192663
1.9972742333226767
1.9973340216921243
1.9972742364348108
1.9974889534802889
1.9972742536261852
1.9978228301585754
1.997274185022895
1.9983261822882936
1.997273825334803
1.9989677689632452
2.0044628946729786
2.0007446259030703
2.0044766069538595
2.0017220876607067
2.0044785715266746
2.002911387716571
2.0044758572597439
2.0039075214729514
2.0044742238432831
2.004341157158918
2.0044738542266383
2.0044525086530665
2.004473807203917
2.0044713153331246
2.0044738031121465
2.0044733691963672
2.0044738031121465
2.0044713153331246
2.004473807203917
2.0044525086530665
2.0044738542266383
2.004341157158918
2.0044742238432831
2.0039075214729514
2.0044758572597439
2.002911387716571
2.0044785715266746
2.0017220876607067
2.0044766069538595
2.0007446259030703
2.0044628946729786
1.9994472213630763
1.9991289041235518
1.9994985498396225
1.9991288184006959
1.9993107745766709
1.9991288270660481
1.999198637461824
1.9991288518641632
1.9991496893418261
1.9991288712219468
1.9991335639182948
1.9991288775669152
1.9991296624553727
1.9991288786878068
1.9991289777247292
1.9991288788145134
1.9991288976485961
1.9991288788145134
1.9991289777247292
1.9991288786878068
1.9991296624553727
1.9991288775669152
1.9991335639182948
1.9991288712219468
1.9991496893418261
1.9991288518641632
1.999198637461824
1.9991288270660481
1.9993107745766709
1.9991288184006959
1.9994985498396225
1.9991289041235518
1.999704042886487
2.0072861904926143
2.0024998465078565
2.0073147735806214
2.0040595128531797
2.007310919305473
2.005393440160351
2.007304556153684
2.0065328118158563
2.0073011675884618
2.0070981160511114
2.0073003263427749
2.0072639015737961
2.0073002071799553
2.0072954852394953
2.0073001958270362
2.0072992924040403
2.0073001958270362
2.0072954852394953
2.0073002071799553
2.0072639015737961
2.0073003263427749
2.0070981160511114
2.0073011675884618
2.0065328118158563
2.007304556153684
2.005393440160351
2.007310919305473
2.0040595128531797
2.0073147735806214
2.0024998465078565
2.0072861904926143
1.9998415637808975
1.9999151889582765
1.9999151889582765
1.9999151889582765
1.9999151889582765
1.9999151889582765
1.9999151889582765
1.9999151889582765
1.9999151889582765
1.9999151889582765
1.9999151889582765
1.9999151889582765
1.9999151889582765
1.9999151889582765
1.9999151889582765
1.9999151889582765
1.9999151889582765
1.9999151889582765
1.9999151889582765
1.9999151889582765
1.9999151889582765
1.9999151889582765
1.9999151889582765
1.9999151889582765
1.9999151889582765
1.9999151889582765
1.9999151889582765
1.9999151889582765
1.9999151889582765
1.9999151889582765
1.9999151889582765
1.9999151889582765
1.9999151889582765
1.0026620894807148
1.0011902982234502
1.0026829628921266
1.0016784886764494
1.0026831516516379
1.0018664569799836
1.0026818166653069
1.0019740641519455
1.0026803157423114
1.0022207591628396
1.0026782889005168
1.0024793477666429
1.0026771566843742
1.0026163210242902
1.0026768320200878
1.0026518045517381
1.0026768320200878
1.0026163210242902
1.0026771566843742
1.0024793477666429
1.0026782889005168
1.0022207591628396
1.0026803157423114
1.0019740641519455
1.0026818166653069
1.0018664569799836
1.0026831516516379
1.0016784886764494
1.0026829628921266
1.0011902982234502
1.0026620894807148
1.0000453978687025
1.0000055546910875
1.0000680969955305
1.0000054387964381
1.000044299764401
1.0000054167928594
1.0000254977091274
1.00000542833276
1.0000138304369617
1.0000054393636995
1.0000083455386137
1.0000054464988657
1.0000062968765013
1.0000054498028443
1.0000056632250842
1.0000054507632941
1.0000055324130068
1.0000054507632941
1.0000056632250842
1.0000054498028443
1.0000062968765013
1.0000054464988657
1.0000083455386137
1.0000054393636995
1.0000138304369617
1.00000542833276
1.0000254977091274
1.0000054167928594
1.000044299764401
1.0000054387964381
1.0000680969955305
1.0000055546910875
1.0000848110417238
1.0017707978129962
1.0006058540378424
1.0017809557715729
1.0008973510966466
1.0017834712959799
1.0010236124610634
1.0017841482548631
1.0011134918400275
1.0017833174996047
1.0013665242120262
1.0017817419918114
1.0016132456798883
1.0017809242286175
1.0017332392714045
1.0017807106695309
1.0017623802446676
1.0017807106695309
1.0017332392714045
1.0017809242286175
1.0016132456798883
1.0017817419918114
1.0013665242120262
1.0017833174996047
1.0011134918400275
1.0017841482548631
1.0010236124610634
1.0017834712959799
1.0008973510966466
1.0017809557715729
1.0006058540378424
1.0017707978129962
1.0001584362191025
1.0001176199453183
1.0002519241251413
1.0001176532310918
1.0002070987721823
1.0001176531082292
1.0001670617286882
1.0001176493716635
1.0001389297831564
1.0001176468469293
1.0001247551690067
1.0001176475458231
1.0001195188334688
1.0001176485918524
1.00011804981546
1.0001176489683514
1.0001177809840855
1.0001176489683514
1.00011804981546
1.0001176485918524
1.0001195188334688
1.0001176475458231
1.0001247551690067
1.0001176468469293
1.0001389297831564
1.0001176493716635
1.0001670617286882
1.0001176531082292
1.0002070987721823
1.0001176532310918
1.0002519241251413
1.0001176199453183
1.0002959571135133
1.0014876405058188
1.0006812967972283
1.0014914240456847
1.0007713341304401
1.0014935991811493
1.0007495697264572
1.0014947614229506
1.0008781896766423
1.0014941738356498
1.0011684823462585
1.0014932395793597
1.0013811461072326
1.0014928455002587
1.0014654760738584
1.0014927576302624
1.0014834090037537
1.0014927576302624
1.0014654760738584
1.0014928455002587
1.0013811461072326
1.0014932395793597
1.0011684823462585
1.0014941738356498
1.0008781896766423
1.0014947614229506
1.0007495697264572
1.0014935991811493
1.0007713341304401
1.0014914240456847
1.0006812967972283
1.0014876405058188
1.0005527786369237
1.0007189568975412
1.0009630138531052
1.0007190285469698
1.0008885800704421
1.0007190754093414
1.0008198078654278
1.0007190805894404
1.0007666039384426
1.000719071203557
1.0007361550474978
1.0007190664619796
1.0007237145025376
1.000719065443358
1.000720052937569
1.000719065322875
1.0007193795201739
1.000719065322875
1.000720052937569
1.000719065443358
1.0007237145025376
1.0007190664619796
1.0007361550474978
1.000719071203557
1.0007666039384426
1.0007190805894404
1.0008198078654278
1.0007190754093414
1.0008885800704421
1.0007190285469698
1.0009630138531052
1.0007189568975412
1.001032231036755
1.0027565349491554
1.0019678392875568
1.0027580301631349
1.0019928780138299
1.0027596148898192
1.0020824447025483
1.0027603115352066
1.0023377535533256
1.002759998093413
1.0025867744171564
1.0027596547262543
1.0027112497007797
1.0027595375256457
1.0027496707564423
1.002759514848554
1.0027566044253957
1.002759514848554
1.0027496707564423
1.0027595375256457
1.0027112497007797
1.0027596547262543
1.0025867744171564
1.002759998093413
1.0023377535533256
1.0027603115352066
1.0020824447025483
1.0027596148898192
1.0019928780138299
1.0027580301631349
1.0019678392875568
1.0027565349491554
1.0019267346633276
1.0031892535509779
1.0035326641453988
1.0031894044850527
1.0034471918972356
1.003189526377978
1.0033624976801543
1.0031895503513992
1.0032820513775416
1.0031895268925202
1.0032261229840278
1.0031895106721176
1.0032001261554051
1.0031895059690679
1.0031918575710561
1.0031895051463233
1.0031902726480255
1.0031895051463233
1.0031918575710561
1.0031895059690679
1.0032001261554051
1.0031895106721176
1.0032261229840278
1.0031895268925202
1.0032820513775416
1.0031895503513992
1.0033624976801543
1.003189526377978
1.0034471918972356
1.0031894044850527
1.0035326641453988
1.0031892535509779
1.0035936025814203
1.0076306243006803
1.0069028537576059
1.0076314482794877
1.0070797942712899
1.0076323571500831
1.0073050756795108
1.0076326539470097
1.0075045547017367
1.0076325514680251
1.0076020543513338
1.0076324578850651
1.0076287290672639
1.007632429233521
1.0076325466073115
1.0076324240438994
1.0076326906369899
1.0076324240438994
1.0076325466073115
1.007632429233521
1.0076287290672639
1.0076324578850651
1.0076020543513338
1.0076325514680251
1.0075045547017367
1.0076326539470097
1.0073050756795108
1.0076323571500831
1.0070797942712899
1.0076314482794877
1.0069028537576059
1.0076306243006803
1.006692850924285
1.0120252554773674
1.0124336070450348
1.0120256006165775
1.0123523771296719
1.0120258359777905
1.0122715415846451
1.012025879320019
1.0121736584448839
1.0120258131441566
1.0120898809087231
1.0120257637640495
1.0120456240227451
1.0120257482295301
1.0120303724326967
1.0120257453337169
1.0120273083034304
1.0120257453337169
1.0120303724326967
1.0120257482295301
1.0120456240227451
1.0120257637640495
1.0120898809087231
1.0120258131441566
1.0121736584448839
1.012025879320019
1.0122715415846451
1.0120258359777905
1.0123523771296719
1.0120256006165775
1.0124336070450348
1.0120252554773674
1.0124316508531859
1.0235490979544646
1.0232927611209999
1.0235498077119947
1.0234540204972742
1.0235503157408505
1.0235982970363915
1.0235504337800407
1.0236405224182055
1.0235503330637556
1.0236065586523735
1.0235502501503921
1.0235709427038417
1.0235502230308844
1.0235555269964338
1.0235502178376719
1.0235521107687435
1.0235502178376719
1.0235555269964338
1.0235502230308844
1.0235709427038417
1.0235502501503921
1.0236065586523735
1.0235503330637556
1.0236405224182055
1.0235504337800407
1.0235982970363915
1.0235503157408505
1.0234540204972742
1.0235498077119947
1.0232927611209999
1.0235490979544646
1.0229773699100257
1.0417546028881837
1.0422296365626917
1.041755470823347
1.0421238992316399
1.0417558128418307
1.0420520377989151
1.0417558370701798
1.0419526494379292
1.0417556809642494
1.041848019247456
1.0417555643906218
1.0417857793266605
1.0417555259625793
1.0417628247137796
1.041755518513781
1.0417580425476014
1.041755518513781
1.0417628247137796
1.0417555259625793
1.0417857793266605
1.0417555643906218
1.041848019247456
1.0417556809642494
1.0419526494379292
1.0417558370701798
1.0420520377989151
1.0417558128418307
1.0421238992316399
1.041755470823347
1.0422296365626917
1.0417546028881837
1.0420877279156189
1.0759672363109314
1.0762317149010578
1.075968671928643
1.0762052021853938
1.0759690309753336
1.0762189430891462
1.0759690161015039
1.0761656621288573
1.0759687978663586
1.0760686878671457
1.0759686369276296
1.0760025319643081
1.0759685832682799
1.0759769012188753
1.0759685727726744
1.0759714632965349
1.0759685727726744
1.0759769012188753
1.0759685832682799
1.0760025319643081
1.0759686369276296
1.0760686878671457
1.0759687978663586
1.0761656621288573
1.0759690161015039
1.0762189430891462
1.0759690309753336
1.0762052021853938
1.075968671928643
1.0762317149010578
1.0759672363109314
1.0758581800212434
1.1326197124276582
1.1332351101267266
1.1326220212981228
1.1330256534266743
1.1326221929485316
1.1329486787406686
1.1326220560898674
1.1328544216939052
1.1326217535794967
1.1327358619200019
1.1326215435285116
1.132659554552184
1.1326214743053242
1.1326306413030029
1.1326214608604828
1.1326245929520156
1.1326214608604828
1.1326306413030029
1.1326214743053242
1.132659554552184
1.1326215435285116
1.1327358619200019
1.1326217535794967
1.1328544216939052
1.1326220560898674
1.1329486787406686
1.1326221929485316
1.1330256534266743
1.1326220212981228
1.1332351101267266
1.1326197124276582
1.1329642401978293
1.2221536484092701
1.2227459704124544
1.2221568562161018
1.2225227551328131
1.2221566941157218
1.2224751750018998
1.2221564291757789
1.2223975570571637
1.2221560496131558
1.2222764698911441
1.222155796252675
1.2221955841233367
1.2221557144393052
1.2221651004465011
1.2221556988670679
1.2221588217310571
1.2221556988670679
1.2221651004465011
1.2221557144393052
1.2221955841233367
1.222155796252675
1.2222764698911441
1.2221560496131558
1.2223975570571637
1.2221564291757789
1.2224751750018998
1.2221566941157218
1.2225227551328131
1.2221568562161018
1.2227459704124544
1.2221536484092701
1.2227001388253087
1.3470324381988694
1.3476370347168465
1.347035920881094
1.347397374857574
1.3470353707521434
1.3473624147010537
1.3470350126202491
1.347287244316421
1.3470345778925816
1.3471587065228843
1.3470342979234506
1.3470740294280501
1.3470342107202846
1.34704318983657
1.3470341947114748
1.3470370508385587
1.3470341947114748
1.34704318983657
1.3470342107202846
1.3470740294280501
1.3470342979234506
1.3471587065228843
1.3470345778925816
1.347287244316421
1.3470350126202491
1.3473624147010537
1.3470353707521434
1.347397374857574
1.347035920881094
1.3476370347168465
1.3470324381988694
1.3486451353339457
1.496794718933526
1.4972175599599344
1.4967976794691555
1.4970948689110219
1.4967969567013646
1.4971146784327252
1.4967966076470018
1.4970501053448055
1.4967961694725211
1.4969176723104483
1.4967958941754191
1.4968329127130617
1.4967958125751812
1.4968036696954714
1.4967957983803226
1.4967981423128085
1.4967957983803226
1.4968036696954714
1.4967958125751812
1.4968329127130617
1.4967958941754191
1.4969176723104483
1.4967961694725211
1.4970501053448055
1.4967966076470018
1.4971146784327252
1.4967969567013646
1.4970948689110219
1.4967976794691555
1.4972175599599344
1.496794718933526
1.5
1.6467980700147649
1.6470849389806514
1.6467999642637321
1.647058357442853
1.6467996443736774
1.6471146359931637
1.6467994689991439