# vtk DataFile Version 3.0
Euler density step 266
ASCII
DATASET STRUCTURED_POINTS
DIMENSIONS 32 32 32
ORIGIN 0 0 0
SPACING 0.3125 0.3125 0.3125
POINT_DATA 32768
SCALARS density double 1
LOOKUP_TABLE default
1.0051352180680377
1.0020004281231674
1.005142052129826
1.0038719781620069
1.0051409110744716
1.0048141244990725
1.0051400535607116
1.0050869667450129
1.0051399163040693
1.0051341734560628
1.0051399053812773
1.0051394688121957
1.0051399048364569
1.0051398804471083
1.0051399048182099
1.005139902756278
1.0051399048182099
1.0051398804471083
1.0051399048364569
1.0051394688121957
1.0051399053812773
1.0051341734560628
1.0051399163040693
1.0050869667450129
1.0051400535607116
1.0048141244990725
1.0051409110744716
1.0038719781620069
1.005142052129826
1.0020004281231674
1.0051352180680377
1.0000453978687025
1.0000850536480992
1.0000872082336616
1.0000850455899932
1.0000862278971374
1.0000850453946784
1.0000854232716965
1.0000850461394402
1.000085119249047
1.000085046294003
1.0000850554489453
1.0000850463079194
1.0000850470984612
1.0000850463086188
1.0000850463581945
1.0000850463086384
1.0000850463133086
1.0000850463086384
1.0000850463581945
1.0000850463086188
1.0000850470984612
1.0000850463079194
1.0000850554489453
1.000085046294003
1.000085119249047
1.0000850461394402
1.0000854232716965
1.0000850453946784
1.0000862278971374
1.0000850455899932
1.0000872082336616
1.0000850536480992
1.0000848110417238
1.0041511241437702
1.0020221111370053
1.004153772669423
1.0033953817441421
1.0041536580177406
1.0039883078035361
1.0041534654231976
1.0041305747360076
1.0041534375127534
1.0041512990552763
1.0041534355727111
1.0041532934786213
1.0041534354904924
1.0041534284876876
1.004153435488381
1.0041534349621104
1.004153435488381
1.0041534284876876
1.0041534354904924
1.0041532934786213
1.0041534355727111
1.0041512990552763
1.0041534375127534
1.0041305747360076
1.0041534654231976
1.0039883078035361
1.0041536580177406
1.0033953817441421
1.004153772669423
1.0020221111370053
1.0041511241437702
1.0001584362191025
1.000289092544882
1.0002934940145143
1.0002890934634729
1.0002908647676949
1.0002890931480848
1.0002895437492973
1.0002890931501853
1.0002891658064765
1.0002890931585351
1.0002891010118664
1.0002890931593003
1.0002890937609359
1.0002890931593205
1.0002890931935475
1.0002890931593198
1.0002890931623023
1.0002890931593198
1.0002890931935475
1.0002890931593205
1.0002890937609359
1.0002890931593003
1.0002891010118664
1.0002890931585351
1.0002891658064765
1.0002890931501853
1.0002895437492973
1.0002890931480848
1.0002908647676949
1.0002890934634729
1.0002934940145143
1.000289092544882
1.0002959571135133
1.002298720614258
1.0014761960139567
1.0022992441724772
1.0020590765055455
1.0022992663129344
1.0022564076441813
1.0022992497378866
1.0022943007490794
1.0022992474243091
1.002298854811557
1.0022992472824108
1.0022992248330393
1.0022992472777281
1.0022992463177263
1.0022992472776826
1.0022992472147929
1.0022992472776826
1.0022992463177263
1.0022992472777281
1.0022992248330393
1.0022992472824108
1.002298854811557
1.0022992474243091
1.0022943007490794
1.0022992497378866
1.0022564076441813
1.0022992663129344
1.0020590765055455
1.0022992441724772
1.0014761960139567
1.002298720614258
1.0005527786369237
1.0009871754677682
1.0010105398576572
1.0009871762568681
1.0009946352498547
1.0009871762371145
1.0009887177368511
1.0009871762132982
1.0009873894041905
1.0009871762104279
1.0009871969016066
1.0009871762102192
1.0009871776820722
1.0009871762102067
1.0009871762898646
1.0009871762102065
1.0009871762169313
1.0009871762102065
1.0009871762898646
1.0009871762102067
1.0009871776820722
1.0009871762102192
1.0009871969016066
1.0009871762104279
1.0009873894041905
1.0009871762132982
1.0009887177368511
1.0009871762371145
1.0009946352498547
1.0009871762568681
1.0010105398576572
1.0009871754677682
1.001032231036755
1.0023002589373433
1.0021564033051198
1.0023003179227286
1.0022685955976005
1.0023003229982215
1.00229633680851
1.0023003223456008
1.0023000382448062
1.0023003222434059
1.0023003133471329
1.0023003222381333
1.0023003225550144
1.0023003222380575
1.0023003222921267
1.0023003222380642
1.0023003222448645
1.0023003222380642
1.0023003222921267
1.0023003222380575
1.0023003225550144
1.0023003222381333
1.0023003133471329
1.0023003222434059
1.0023000382448062
1.0023003223456008
1.00229633680851
1.0023003229982215
1.0022685955976005
1.0023003179227286
1.0021564033051198
1.0023002589373433
1.0019267346633276
1.003451475975474
1.0035259095653435
1.0034514801632159
1.003475194133095
1.0034514802603514
1.0034563659359321
1.0034514800966716
1.0034521544523098
1.0034514800726755
1.0034515454576511
1.0034514800709751
1.0034514847196996
1.0034514800708962
1.003451480322374
1.0034514800708922
1.0034514800921093
1.0034514800708922
1.003451480322374
1.0034514800708962
1.0034514847196996
1.0034514800709751
1.0034515454576511
1.0034514800726755
1.0034521544523098
1.0034514800966716
1.0034563659359321
1.0034514802603514
1.003475194133095
1.0034514801632159
1.0035259095653435
1.003451475975474
1.0035936025814203
1.0065308794540646
1.0066301336380918
1.0065308940515068
1.006565924314387
1.0065308946017166
1.0065386118644453
1.0065308941243059
1.0065320031768568
1.0065308940528581
1.0065310042156717
1.0065308940478463
1.0065309019950894
1.0065308940476161
1.0065308944813138
1.006530894047609
1.0065308940843856
1.006530894047609
1.0065308944813138
1.0065308940476161
1.0065309019950894
1.0065308940478463
1.0065310042156717
1.0065308940528581
1.0065320031768568
1.0065308941243059
1.0065386118644453
1.0065308946017166
1.006565924314387
1.0065308940515068
1.0066301336380918
1.0065308794540646
1.006692850924285
1.0120593419630595
1.0122629289621154
1.0120593692021542
1.0121258661657875
1.0120593688549042
1.0120733485117617
1.0120593674509877
1.0120613241116478
1.0120593672514351
1.0120595586574974
1.0120593672372276
1.0120593809159009
1.0120593672365481
1.0120593679783101
1.0120593672365232
1.0120593672991312
1.0120593672365232
1.0120593679783101
1.0120593672365481
1.0120593809159009
1.0120593672372276
1.0120595586574974
1.0120593672514351
1.0120613241116478
1.0120593674509877
1.0120733485117617
1.0120593688549042
1.0121258661657875
1.0120593692021542
1.0122629289621154
1.0120593419630595
1.0124316508531859
1.0224162777856802
1.0227334621812358
1.0224163414889973
1.0225215799941569
1.0224163389984624
1.0224387191385544
1.0224163352244717
1.0224194889104001
1.0224163346986583
1.0224166441906599
1.0224163346612489
1.02241635679443
1.0224163346594481
1.0224163358583926
1.0224163346593833
1.0224163347603425
1.0224163346593833
1.0224163358583926
1.0224163346594481
1.02241635679443
1.0224163346612489
1.0224166441906599
1.0224163346986583
1.0224194889104001
1.0224163352244717
1.0224387191385544
1.0224163389984624
1.0225215799941569
1.0224163414889973
1.0227334621812358
1.0224162777856802
1.0229773699100257
1.0412500806214264
1.041734005166546
1.0412502205074297
1.0414116229165342
1.0412502102302754
1.0412846783226621
1.0412502007398692
1.0412550628402759
1.0412501994532581
1.0412506757156288
1.0412501993622376
1.0412502332815108
1.041250199357846
1.0412502011844496
1.0412501993576841
1.0412501995103942
1.0412501993576841
1.0412502011844496
1.041250199357846
1.0412502332815108
1.0412501993622376
1.0412506757156288
1.0412501994532581
1.0412550628402759
1.0412502007398692
1.0412846783226621
1.0412502102302754
1.0414116229165342
1.0412502205074297
1.041734005166546
1.0412500806214264
1.0420877279156189
1.0746604187700144
1.0753676724419334
1.0746607074530821
1.0748973970664608
1.0746606741704876
1.0747112392526381
1.0746606521064763
1.0746677528625401
1.0746606492184274
1.0746613388719017
1.0746606490166419
1.0746606975718018
1.0746606490069319
1.0746606515858792
1.0746606490065753
1.0746606492188817
1.0746606490065753
1.0746606515858792
1.0746606490069319
1.0746606975718018
1.0746606490166419
1.0746613388719017
1.0746606492184274
1.0746677528625401
1.0746606521064763
1.0747112392526381
1.0746606741704876
1.0748973970664608
1.0746607074530821
1.0753676724419334
1.0746604187700144
1.0758581800212434
1.1312758269149177
1.1322754177519232
1.1312763827487213
1.1316098111528001
1.131276290371489
1.1313469618345333
1.1312762432482306
1.1312860258299431
1.131276237363106
1.1312771690894903
1.1312762369613767
1.1312763010403448
1.1312762369423044
1.1312762402567005
1.1312762369416109
1.1312762372067113
1.1312762369416109
1.1312762402567005
1.1312762369423044
1.1312763010403448
1.1312762369613767
1.1312771690894903
1.131276237363106
1.1312860258299431
1.1312762432482306
1.1313469618345333
1.131276290371489
1.1316098111528001
1.1312763827487213
1.1322754177519232
1.1312758269149177
1.1329642401978293
1.220324840507502
1.2216845022277718
1.2203258188938539
1.220775627184165
1.2203255965617741
1.2204193339978535
1.2203255055960558
1.220338141503718
1.2203254949020772
1.2203266581272858
1.2203254941985167
1.2203255710741201
1.2203254941660049
1.2203254979687121
1.2203254941648487
1.2203254944546789
1.2203254941648487
1.2203254979687121
1.2203254941660049
1.2203255710741201
1.2203254941985167
1.2203266581272858
1.2203254949020772
1.220338141503718
1.2203255055960558
1.2204193339978535
1.2203255965617741
1.220775627184165
1.2203258188938539
1.2216845022277718
1.220324840507502
1.2227001388253087
1.3453172016140693
1.347075400631053
1.3453187323914371
1.3458951870377898
1.3453182724253756
1.3454353941072752
1.3453181169114035
1.3453332777679499
1.3453180999473664
1.3453194250163591
1.3453180988913858
1.3453181813349595
1.3453180988449192
1.3453181026591772
1.3453180988433471
1.3453180991140015
1.3453180988433471
1.3453181026591772
1.3453180988449192
1.3453181813349595
1.3453180988913858
1.3453194250163591
1.3453180999473664
1.3453332777679499
1.3453181169114035
1.3454353941072752
1.3453182724253756
1.3458951870377898
1.3453187323914371
1.347075400631053
1.3453172016140693
1.3486451353339457
1.4954960062995801
1.4976295170990139
1.4954980919771947
1.4961901415932577
1.4954973059814212
1.4956326730002543
1.4954970815906057
1.4955136178608643
1.4954970593528594
1.4954984058961955
1.4954970580781191
1.495497135485566
1.4954970580262541
1.4954970613161849
1.4954970580246343
1.4954970582383587
1.4954970580246343
1.4954970613161849
1.4954970580262541
1.495497135485566
1.4954970580781191
1.4954984058961955
1.4954970593528594
1.4955136178608643
1.4954970815906057
1.4956326730002543
1.4954973059814212
1.4961901415932577
1.4954980919771947
1.4976295170990139
1.4954960062995801
1.5
1.6457663625760715
1.6481627935967644
1.6457687390875317
1.6465267697345136
1.6457677191976277
1.6459079073700871
1.6457674674417146
1.6457833936191735
1.6457674450791144
1.6457686408538232
1.645767443916538
1.6457675070012008
1.6457674438733698
1.6457674463269489
1.6457674438721355
1.6457674440178025
1.6457674438721355
1.6457674463269489
1.6457674438733698
1.6457675070012008
1.645767443916538
1.6457686408538232
1.6457674450791144
1.6457833936191735
1.6457674674417146
1.6459079073700871
1.6457677191976277
1.6465267697345136
1.6457687390875317
1.6481627935967644
1.6457663625760715
1.6513548646660543
1.7712105661917408
1.7736548646125359
1.7712127618405236
1.7719500652580238
1.7712118019732259
1.7713390783425702
1.7712115901257781
1.7712249914005984
1.7712115731226279
1.7712125035603583
1.771211572314793
1.7712116176720512
1.7712115722871662
1.7712115739167089
1.7712115722864368
1.7712115723758115
1.7712115722864368
1.7712115739167089
1.7712115722871662
1.7712116176720512
1.771211572314793
1.7712125035603583
1.7712115731226279
1.7712249914005984
1.7712115901257781
1.7713390783425702
1.7712118019732259
1.7719500652580238
1.7712127618405236
1.7736548646125359
1.7712105661917408
1.7772998611746911
1.8612701951081438
1.8635005212335543
1.8612718639653354
1.861903793498892
1.8612711890752081
1.8613728623193107
1.8612710511831005
1.8612810416706662
1.8612710409852351
1.861271689835521
1.861271040534572
1.8612710701816453
1.8612710405201489
1.861271041519833
1.8612710405197905
1.861271040571302
1.8612710405197905
1.861271041519833
1.8612710405201489
1.8612710701816453
1.861271040534572
1.861271689835521
1.8612710409852351
1.8612810416706662
1.8612710511831005
1.8613728623193107
1.8612711890752081
1.861903793498892
1.8612718639653354
1.8635005212335543
1.8612701951081438
1.8670357598021707
1.9193350309277755
1.9211521674878969
1.9193360997398357
1.9198186458901125
1.9193357240991582
1.9194086139795967
1.9193356510257149
1.9193424151404976
1.9193356459464033
1.919336062861833
1.9193356457339734
1.9193356638754677
1.9193356457275077
1.9193356463114484
1.9193356457273545
1.9193356457561284
1.9193356457273545
1.9193356463114484
1.9193356457275077
1.9193356638754677
1.9193356457339734
1.919336062861833
1.9193356459464033
1.9193424151404976
1.9193356510257149
1.9194086139795967
1.9193357240991582
1.9198186458901125
1.9193360997398357
1.9211521674878969
1.9193350309277755
1.9241418199787566
1.9543070457161391
1.9556439907283523
1.9543076330666114
1.9546425252842139
1.9543074586231739
1.9543554781011974
1.9543074256142487
1.9543116882884735
1.9543074234210114
1.9543076761887272
1.9543074233329214
1.9543074339567399
1.9543074233303404
1.9543074236615581
1.9543074233302822
1.954307423346122
1.9543074233302822
1.9543074236615581
1.9543074233303404
1.9543074339567399
1.9543074233329214
1.9543076761887272
1.9543074234210114
1.9543116882884735
1.9543074256142487
1.9543554781011974
1.9543074586231739
1.9546425252842139
1.9543076330666114
1.9556439907283523
1.9543070457161391
1.9579122720843811
1.9745562330628639
1.9754563268487462
1.9745565152743951
1.974771758872198
1.97455644485548
1.9745861080699443
1.974556431670194
1.9745589807790489
1.9745564308211316
1.9745565779277789
1.974556430788003
1.9745564368275335
1.9745564307870576
1.9745564309714632
1.9745564307870374
1.97455643079569
1.9745564307870374
1.9745564309714632
1.9745564307870576
1.9745564368275335
1.974556430788003
1.9745565779277789
1.9745564308211316
1.9745589807790489
1.974556431670194
1.9745861080699443
1.97455644485548
1.974771758872198
1.9745565152743951
1.9754563268487462
1.9745562330628639
1.9770226300899743
1.9859723161317477
1.9865440308331443
1.985972437293368
1.9861037881947743
1.9859724116051745
1.9859899530198797
1.9859724067993354
1.9859738783440974
1.9859724064966393
1.9859724898144777
1.9859724064850737
1.9859724098524651
1.9859724064847513
1.9859724065861977
1.9859724064847433
1.9859724064894486
1.9859724064847433
1.9859724065861977
1.9859724064847513
1.9859724098524651
1.9859724064850737
1.9859724898144777
1.9859724064966393
1.9859738783440974
1.9859724067993354
1.9859899530198797
1.9859724116051745
1.9861037881947743
1.985972437293368
1.9865440308331443
1.9859723161317477
1.9875683491468141
1.9924943307216347
1.992792845306719
1.9924943822495016
1.9925645552090305
1.9924943741723895
1.9925038390004817
1.9924943725468323
1.9924951688148465
1.9924943724434028
1.9924944175014239
1.9924943724394599
1.9924943742564685
1.9924943724393487
1.9924943724939244
1.9924943724393467
1.9924943724418704
1.9924943724393467
1.9924943724939244
1.9924943724393487
1.9924943742564685
1.9924943724394599
1.9924944175014239
1.9924943724434028
1.9924951688148465
1.9924943725468323
1.9925038390004817
1.9924943741723895
1.9925645552090305
1.9924943822495016
1.992792845306719
1.9924943307216347
1.993307149075715
1.9958324829458176
1.9960335498992761
1.9958324999421471
1.99587642562602
1.9958324971692032
1.9958381427108243
1.9958324966445484
1.9958329570909061
1.9958324966124383
1.9958325221340238
1.9958324966112488
1.9958324976256827
1.995832496611216
1.9958324966413661
1.9958324966112151
1.9958324966125973
1.9958324966112151
1.9958324966413661
1.995832496611216
1.9958324976256827
1.9958324966112488
1.9958325221340238
1.9958324966124383
1.9958329570909061
1.9958324966445484
1.9958381427108243
1.9958324971692032
1.99587642562602
1.9958324999421471
1.9960335498992761
1.9958324829458176
1.9964063974185799
1.9987769851087469
1.9985385969537974
1.9987770841648038
1.9987387639112784
1.9987770801263005
1.9987737456846533
1.9987770784937813
1.9987769088836631
1.9987770783729382
1.9987770733304593
1.9987770783678691
1.9987770783009149
1.9987770783677243
1.9987770783688259
1.998777078367721
1.9987770783678835
1.998777078367721
1.9987770783688259
1.9987770783677243
1.9987770783009149
1.9987770783678691
1.9987770733304593
1.9987770783729382
1.9987769088836631
1.9987770784937813
1.9987737456846533
1.9987770801263005
1.9987387639112784
1.9987770841648038
1.9985385969537974
1.9987769851087469
1.9980732653366724
1.9987797801232308
1.9988480519407863
1.9987797810314401
1.9987947201597487
1.998779781017511
1.998781694966743
1.9987797810457588
1.9987799362052829
1.9987797810496741
1.9987797895870534
1.9987797810499026
1.998779781386635
1.9987797810499104
1.9987797810598433
1.9987797810499104
1.9987797810503629
1.9987797810499104
1.9987797810598433
1.9987797810499104
1.998779781386635
1.9987797810499026
1.9987797895870534
1.9987797810496741
1.9987799362052829
1.9987797810457588
1.998781694966743
1.998779781017511
1.9987947201597487
1.9987797810314401
1.9988480519407863
1.9987797801232308
1.9989677689632452
2.0028154726161365
2.0013917862609718
2.0028163493183655
2.0024929819948123
2.0028161940633189
2.0027751879688207
2.0028161607124293
2.002812950085854
2.0028161584525654
2.0028159898939397
2.0028161583602797
2.002816152055563
2.0028161583575712
2.0028161581817781
2.0028161583575113
2.0028161583499586
2.0028161583575113
2.0028161581817781
2.0028161583575712
2.002816152055563
2.0028161583602797
2.0028159898939397
2.0028161584525654
2.002812950085854
2.0028161607124293
2.0027751879688207
2.0028161940633189
2.0024929819948123
2.0028163493183655
2.0013917862609718
2.0028154726161365
1.9994472213630763
1.9996569403522328
1.9996812742959655
1.9996569351357731
1.9996637808886972
1.9996569376636375
1.9996580040154359
1.9996569383371925
1.9996570385218801
1.9996569383978831
1.9996569445706722
1.9996569384009586
1.9996569386670386
1.9996569384010634
1.999656938409492
1.999656938401067
1.9996569384014728
1.999656938401067
1.999656938409492
1.9996569384010634
1.9996569386670386
1.9996569384009586
1.9996569445706722
1.9996569383978831
1.9996570385218801
1.9996569383371925
1.9996580040154359
1.9996569376636375
1.9996637808886972
1.9996569351357731
1.9996812742959655
1.9996569403522328
1.999704042886487
2.0057679835094873
2.0029742339957206
2.0057710862517513
2.0049697887937614
2.0057695253620746
2.005643053763607
2.0057692411323345
2.0057572832474384
2.0057692212678613
2.0057684818807409
2.0057692204307096
2.0057691884760969
2.0057692204052704
2.0057692193907526
2.0057692204046766
2.0057692203556305
2.0057692204046766
2.0057692193907526
2.0057692204052704
2.0057691884760969
2.0057692204307096
2.0057684818807409
2.0057692212678613
2.0057572832474384
2.0057692411323345
2.005643053763607
2.0057695253620746
2.0049697887937614
2.0057710862517513
2.0029742339957206
2.0057679835094873
1.9998415637808975
1.9999151889582765
1.9999151889582765
1.9999151889582765
1.9999151889582765
1.9999151889582765
1.9999151889582765
1.9999151889582765
1.9999151889582765
1.9999151889582765
1.9999151889582765
1.9999151889582765
1.9999151889582765
1.9999151889582765
1.9999151889582765
1.9999151889582765
1.9999151889582765
1.9999151889582765
1.9999151889582765
1.9999151889582765
1.9999151889582765
1.9999151889582765
1.9999151889582765
1.9999151889582765
1.9999151889582765
1.9999151889582765
1.9999151889582765
1.9999151889582765
1.9999151889582765
1.9999151889582765
1.9999151889582765
1.9999151889582765
1.9999151889582765
1.0045547119487526
1.0025218043684301
1.0045624301960896
1.0035263284482197
1.0045604737552056
1.0042174407443301
1.0045591010522557
1.00448963760237
1.0045588207743872
1.0045497056656691
1.004558791094232
1.0045579645945959
1.0045587890428327
1.0045587344188704
1.0045587889391081
1.0045587834994267
1.0045587889391081
1.0045587344188704
1.0045587890428327
1.0045579645945959
1.004558791094232
1.0045497056656691
1.0045588207743872
1.00448963760237
1.0045591010522557
1.0042174407443301
1.0045604737552056
1.0035263284482197
1.0045624301960896
1.0025218043684301
1.0045547119487526
1.0000453978687025
1.000085378243559
1.0000861070552061
1.000085370259405
1.0000857306866147
1.000085369330125
1.0000855080890023
1.0000853701849688
1.0000854095571912
1.0000853704393735
1.0000853773924641
1.0000853704725492
1.0000853712669211
1.0000853704751929
1.0000853705380597
1.0000853704753419
1.0000853704825543
1.0000853704753419
1.0000853705380597
1.0000853704751929
1.0000853712669211
1.0000853704725492
1.0000853773924641
1.0000853704393735
1.0000854095571912
1.0000853701849688
1.0000855080890023
1.000085369330125
1.0000857306866147
1.000085370259405
1.0000861070552061
1.000085378243559
1.0000848110417238
1.002790010629393
1.0011567840084636
1.0027932779452355
1.0020504095104161
1.0027930409881247
1.0025884907225266
1.0027926610721518
1.0027578979941327
1.0027925881425188
1.0027886807874069
1.0027925811186813
1.0027922722010332
1.0027925806710616
1.0027925626237717
1.002792580649988
1.0027925790419183
1.002792580649988
1.0027925626237717
1.0027925806710616
1.0027922722010332
1.0027925811186813
1.0027886807874069
1.0027925881425188
1.0027578979941327
1.0027926610721518
1.0025884907225266
1.0027930409881247
1.0020504095104161
1.0027932779452355
1.0011567840084636
1.002790010629393
1.0001584362191025
1.0002962001464761
1.0002967234625313
1.0002962056916538
1.0002966268827675
1.0002962046336219
1.0002964040480058
1.0002962043103301
1.0002962532369046
1.0002962042863859
1.0002962114000509
1.0002962042863559
1.0002962049684474
1.0002962042864707
1.0002962043329158
1.0002962042864807
1.0002962042911769
1.0002962042864807
1.0002962043329158
1.0002962042864707
1.0002962049684474
1.0002962042863559
1.0002962114000509
1.0002962042863859
1.0002962532369046
1.0002962043103301
1.0002964040480058
1.0002962046336219
1.0002966268827675
1.0002962056916538
1.0002967234625313
1.0002962001464761
1.0002959571135133
1.0020546772062466
1.0012294575272094
1.0020554283380847
1.0017591093900953
1.0020554483508672
1.0019907916217123
1.0020554022263044
1.0020464034565784
1.0020553936517433
1.0020545412093917
1.0020553928683436
1.0020553348359749
1.0020553928209202
1.0020553898554616
1.0020553928188085
1.0020553925846707
1.0020553928188085
1.0020553898554616
1.0020553928209202
1.0020553348359749
1.0020553928683436
1.0020545412093917
1.0020553936517433
1.0020464034565784
1.0020554022263044
1.0019907916217123
1.0020554483508672
1.0017591093900953
1.0020554283380847
1.0012294575272094
1.0020546772062466
1.0005527786369237
1.0009957221831651
1.0010163378222536
1.0009957244552043
1.0010032486174243
1.0009957243777443
1.0009975277738774
1.0009957242814642
1.0009960106717939
1.0009957242686989
1.0009957557028566
1.0009957242678349
1.0009957267601075
1.0009957242677976
1.0009957244162757
1.0009957242677974
1.0009957242814376
1.0009957242677974
1.0009957244162757
1.0009957242677976
1.0009957267601075
1.0009957242678349
1.0009957557028566
1.0009957242686989
1.0009960106717939
1.0009957242814642
1.0009975277738774
1.0009957243777443
1.0010032486174243
1.0009957244552043
1.0010163378222536
1.0009957221831651
1.001032231036755
1.002360454609186
1.0021640074111233
1.0023605594534528
1.0023065805458169
1.0023605679786014
1.0023517588644135
1.0023605649470728
1.0023596682777678
1.0023605643394682
1.0023605055838045
1.0023605642844196
1.0023605618726887
1.0023605642811957
1.0023605642343119
1.0023605642810589
1.0023605642832358
1.0023605642810589
1.0023605642343119
1.0023605642811957
1.0023605618726887
1.0023605642844196
1.0023605055838045
1.0023605643394682
1.0023596682777678
1.0023605649470728
1.0023517588644135
1.0023605679786014
1.0023065805458169
1.0023605594534528
1.0021640074111233
1.002360454609186
1.0019267346633276
1.0034735944978583
1.0035420653938989
1.0034736005285003
1.0034984871536612
1.003473600495274
1.0034795037227984
1.0034736001488398
1.0034745287952567
1.003473600090246
1.0034737013207768
1.0034736000852464
1.0034736080741167
1.0034736000849591
1.0034736005594269
1.0034736000849462
1.0034736001284472
1.0034736000849462
1.0034736005594269
1.0034736000849591
1.0034736080741167
1.0034736000852464
1.0034737013207768
1.003473600090246
1.0034745287952567
1.0034736001488398
1.0034795037227984
1.003473600495274
1.0034984871536612
1.0034736005285003
1.0035420653938989
1.0034735944978583
1.0035936025814203
1.0066019536659283
1.0066729919077713
1.0066019767078671
1.0066334508097661
1.006601977408569
1.0066104346616025
1.0066019763731429
1.0066034063357086
1.0066019761869214
1.0066021388172599
1.0066019761706579
1.0066019893392777
1.006601976169718
1.0066019769644425
1.0066019761696765
1.0066019762432752
1.0066019761696765
1.0066019769644425
1.006601976169718
1.0066019893392777
1.0066019761706579
1.0066021388172599
1.0066019761869214
1.0066034063357086
1.0066019763731429
1.0066104346616025
1.006601977408569
1.0066334508097661
1.0066019767078671
1.0066729919077713
1.0066019536659283
1.006692850924285
1.0121454368042553
1.0123179492773737
1.0121454705500621
1.0122106550581602
1.0121454686790854
1.0121614484803059
1.0121454661139311
1.0121480378521743
1.0121454656907987
1.0121457501879543
1.0121454656546829
1.0121454883104528
1.0121454656525983
1.0121454670050443
1.0121454656525091
1.0121454657767921
1.0121454656525091
1.0121454670050443
1.0121454656525983
1.0121454883104528
1.0121454656546829
1.0121457501879543
1.0121454656907987
1.0121480378521743
1.0121454661139311
1.0121614484803059
1.0121454686790854
1.0122106550581602
1.0121454705500621
1.0123179492773737
1.0121454368042553
1.0124316508531859
1.0225780792012733
1.0228295869887012
1.0225781528016893
1.022675982033209
1.0225781462364321
1.0226026661455858
1.0225781398890412
1.0225821387257787
1.022578138860176
1.022578584293403
1.0225781387727291
1.0225781743407469
1.0225781387676904
1.0225781408907244
1.0225781387674728
1.0225781389621813
1.0225781387674728
1.0225781408907244
1.0225781387676904
1.0225781743407469
1.0225781387727291
1.022578584293403
1.022578138860176
1.0225821387257787
1.0225781398890412
1.0226026661455858
1.0225781462364321
1.022675982033209
1.0225781528016893
1.0228295869887012
1.0225780792012733
1.0229773699100257
1.0415137623664323
1.0418775707818224
1.041513910869597
1.0416566428842831
1.0415138908450063
1.0415500192112301
1.0415138762819065
1.0415197969209469
1.0415138739829484
1.041514533526124
1.0415138737894711
1.0415139262671214
1.0415138737783909
1.041513876891311
1.0415138737779108
1.0415138740611041
1.0415138737779108
1.041513876891311
1.0415138737783909
1.0415139262671214
1.0415138737894711
1.041514533526124
1.0415138739829484
1.0415197969209469
1.0415138762819065
1.0415500192112301
1.0415138908450063
1.0416566428842831
1.041513910869597
1.0418775707818224
1.0415137623664323
1.0420877279156189
1.0750670654829364
1.0755623434367383
1.0750673445532499
1.0752638915626671
1.0750672921525308
1.0751174743773348
1.0750672616057777
1.075075483782588
1.0750672569398321
1.0750681663033617
1.07506725655352
1.0750673280406493
1.0750672565316786
1.075067260706815
1.0750672565307473
1.0750672569038418
1.0750672565307473
1.075067260706815
1.0750672565316786
1.0750673280406493
1.07506725655352
1.0750681663033617
1.0750672569398321
1.075075483782588
1.0750672616057777
1.0751174743773348
1.0750672921525308
1.0752638915626671
1.0750673445532499
1.0755623434367383
1.0750670654829364
1.0758581800212434
1.1318449795635086
1.1324926214255158
1.1318454590793405
1.1321036241046423
1.1318453390062726
1.1319111915734632
1.1318452810929946
1.1318559413901759
1.1318452726317103
1.1318464277279949
1.1318452719502976
1.1318453603861314
1.1318452719126724
1.1318452769206966
1.1318452719111012
1.1318452723436971
1.1318452719111012
1.1318452769206966
1.1318452719126724
1.1318453603861314
1.1318452719502976
1.1318464277279949
1.1318452726317103
1.1318559413901759
1.1318452810929946
1.1319111915734632
1.1318453390062726
1.1321036241046423
1.1318454590793405
1.1324926214255158
1.1318449795635086
1.1329642401978293
1.2210561485422882
1.2218621019190556
1.2210568815634706
1.2213787997903245
1.221056644730403
1.2211378381030307
1.2210565475703412
1.2210693347693078
1.2210565341567827
1.2210578664635794
1.2210565331215537
1.2210566304048647
1.2210565330666459
1.2210565382889889
1.2210565330644505
1.2210565334903696
1.2210565330644505
1.2210565382889889
1.2210565330666459
1.2210566304048647
1.2210565331215537
1.2210578664635794
1.2210565341567827
1.2210693347693078
1.2210565475703412
1.2211378381030307
1.221056644730403
1.2213787997903245
1.2210568815634706
1.2218621019190556
1.2210561485422882
1.2227001388253087
1.3462269408887884
1.3471732955681401
1.3462279183190691
1.3466079289956938
1.3462275255255842
1.3463208976559786
1.3462273851268036
1.3462413640177475
1.3462273671650469
1.3462287313679389
1.346227365870639
1.3462274583355933
1.3462273658065358
1.3462273703870014
1.3462273658041517
1.3462273661477644
1.3462273658041517
1.3462273703870014
1.3462273658065358
1.3462274583355933
1.346227365870639
1.3462287313679389
1.3462273671650469
1.3462413640177475
1.3462273851268036
1.3463208976559786
1.3462275255255842
1.3466079289956938
1.3462279183190691
1.3471732955681401
1.3462269408887884
1.3486451353339457
1.4966986193334024
1.4977552704959169
1.4966997332746348
1.4971207967656781
1.4966992178126435
1.4967969008599626
1.4966990551888011
1.4967125395050491
1.4966990364293582
1.4967002372241378
1.4966990352023966
1.4966991091165516
1.4966990351470768
1.4966990384644556
1.4966990351452041
1.4966990353705887
1.4966990351452041
1.4966990384644556
1.4966990351470768
1.4966991091165516
1.4966990352023966
1.4967002372241378
1.4966990364293582
1.4967125395050491
1.4966990551888011
1.4967969008599626
1.4966992178126435
1.4971207967656781
1.4966997332746348
1.4977552704959169
1.4966986193334024
1.5
1.6474526256163913
1.6485711861653165
1.647453662306166
1.6478767053175112
1.6474531724149191
1.6475426278465732
1.6474530336171151
1.6474641880641665
1.6474530192930257
1.647453915757547