# vtk DataFile Version 3.0
Euler density step 172
ASCII
DATASET STRUCTURED_POINTS
DIMENSIONS 32 32 32
ORIGIN 0 0 0
SPACING 0.3125 0.3125 0.3125
POINT_DATA 32768
SCALARS density double 1
LOOKUP_TABLE default
1.0027903242811558
1.0017442843147659
1.00279108944505
1.0026039048914128
1.0027908854847514
1.0027719825825299
1.0027908632215197
1.0027896841364947
1.0027908623238924
1.0027908133001417
1.0027908623032971
1.0027908608653453
1.0027908623030146
1.0027908622719683
1.0027908623030124
1.002790862301995
1.0027908623030124
1.0027908622719683
1.0027908623030146
1.0027908608653453
1.0027908623032971
1.0027908133001417
1.0027908623238924
1.0027896841364947
1.0027908632215197
1.0027719825825299
1.0027908854847514
1.0026039048914128
1.00279108944505
1.0017442843147659
1.0027903242811558
1.0000453978687025
1.0000877292862527
1.0000875578568522
1.0000877290446255
1.0000877857436945
1.000087729082876
1.0000877417598151
1.0000877290914088
1.0000877302496218
1.0000877290918957
1.0000877291538492
1.0000877290919097
1.0000877290941104
1.0000877290919097
1.0000877290919665
1.0000877290919097
1.0000877290919123
1.0000877290919097
1.0000877290919665
1.0000877290919097
1.0000877290941104
1.0000877290919097
1.0000877291538492
1.0000877290918957
1.0000877302496218
1.0000877290914088
1.0000877417598151
1.000087729082876
1.0000877857436945
1.0000877290446255
1.0000875578568522
1.0000877292862527
1.0000848110417238
1.0013667321078723
1.0010154441041852
1.0013668749015088
1.0013153278421025
1.0013668639410109
1.001362575340327
1.0013668624872474
1.0013666381394315
1.0013668624333076
1.0013668544816297
1.0013668624323102
1.0013668622308609
1.0013668624323042
1.0013668624285088
1.0013668624323042
1.0013668624321941
1.0013668624323042
1.0013668624285088
1.0013668624323042
1.0013668622308609
1.0013668624323102
1.0013668544816297
1.0013668624333076
1.0013666381394315
1.0013668624872474
1.001362575340327
1.0013668639410109
1.0013153278421025
1.0013668749015088
1.0010154441041852
1.0013667321078723
1.0001584362191025
1.0002949400338979
1.0002956528675073
1.0002949400359284
1.0002950857151756
1.0002949400355374
1.0002949558592265
1.000294940035912
1.0002949410758242
1.00029494003594
1.0002949400812864
1.0002949400359411
1.0002949400373402
1.0002949400359411
1.0002949400359735
1.0002949400359411
1.0002949400359418
1.0002949400359411
1.0002949400359735
1.0002949400359411
1.0002949400373402
1.0002949400359411
1.0002949400812864
1.00029494003594
1.0002949410758242
1.000294940035912
1.0002949558592265
1.0002949400355374
1.0002950857151756
1.0002949400359284
1.0002956528675073
1.0002949400338979
1.0002959571135133
1.0007699375453627
1.000717850109031
1.0007699472272227
1.0007637866287438
1.0007699471314357
1.0007695296041972
1.0007699470958549
1.0007699290940493
1.0007699470946887
1.0007699465657751
1.0007699470946794
1.0007699470835956
1.00076994709468
1.0007699470945102
1.00076994709468
1.0007699470946758
1.00076994709468
1.0007699470945102
1.00076994709468
1.0007699470835956
1.0007699470946794
1.0007699465657751
1.0007699470946887
1.0007699290940493
1.0007699470958549
1.0007695296041972
1.0007699471314357
1.0007637866287438
1.0007699472272227
1.000717850109031
1.0007699375453627
1.0005527786369237
1.0010252290930315
1.00102810758565
1.0010252290999584
1.0010257044554358
1.0010252290990396
1.0010252748934632
1.0010252290989317
1.0010252319156174
1.0010252290989266
1.0010252292173973
1.0010252290989266
1.0010252291025123
1.0010252290989266
1.0010252290990076
1.0010252290989266
1.0010252290989297
1.0010252290989266
1.0010252290990076
1.0010252290989266
1.0010252291025123
1.0010252290989266
1.0010252292173973
1.0010252290989266
1.0010252319156174
1.0010252290989317
1.0010252748934632
1.0010252290990396
1.0010257044554358
1.0010252290999584
1.00102810758565
1.0010252290930315
1.001032231036755
1.0019358778618443
1.0019366444885425
1.0019358782325443
1.0019362958575992
1.0019358782365639
1.0019359353418804
1.0019358782358796
1.0019358823559237
1.0019358782358581
1.0019358784243015
1.0019358782358581
1.0019358782418393
1.0019358782358581
1.0019358782359975
1.0019358782358581
1.0019358782358634
1.0019358782358581
1.0019358782359975
1.0019358782358581
1.0019358782418393
1.0019358782358581
1.0019358784243015
1.0019358782358581
1.0019358823559237
1.0019358782358796
1.0019359353418804
1.0019358782365639
1.0019362958575992
1.0019358782325443
1.0019366444885425
1.0019358778618443
1.0019267346633276
1.0035700897279449
1.0035797085948057
1.0035700898229247
1.0035716701231787
1.0035700898129656
1.0035702414857923
1.0035700898115547
1.0035700991100478
1.0035700898114883
1.0035700902013367
1.0035700898114877
1.0035700898232491
1.0035700898114877
1.0035700898117532
1.0035700898114877
1.0035700898114961
1.0035700898114877
1.0035700898117532
1.0035700898114877
1.0035700898232491
1.0035700898114877
1.0035700902013367
1.0035700898114883
1.0035700991100478
1.0035700898115547
1.0035702414857923
1.0035700898129656
1.0035716701231787
1.0035700898229247
1.0035797085948057
1.0035700897279449
1.0035936025814203
1.006652217607173
1.0066693093736179
1.0066522179078208
1.0066550479300265
1.0066522178744615
1.0066524904079788
1.0066522178698463
1.0066522345906075
1.0066522178696369
1.0066522185701847
1.0066522178696309
1.0066522178907353
1.0066522178696309
1.0066522178701052
1.0066522178696309
1.0066522178696469
1.0066522178696309
1.0066522178701052
1.0066522178696309
1.0066522178907353
1.0066522178696309
1.0066522185701847
1.0066522178696369
1.0066522345906075
1.0066522178698463
1.0066524904079788
1.0066522178744615
1.0066550479300265
1.0066522179078208
1.0066693093736179
1.006652217607173
1.006692850924285
1.0123581241063917
1.0123888160444692
1.0123581249738856
1.012363177191216
1.0123581248617581
1.0123586094651189
1.0123581248470355
1.0123581544736591
1.0123581248463676
1.012358126083126
1.0123581248463476
1.0123581248834614
1.0123581248463471
1.0123581248471814
1.0123581248463471
1.0123581248463773
1.0123581248463471
1.0123581248471814
1.0123581248463471
1.0123581248834614
1.0123581248463476
1.012358126083126
1.0123581248463676
1.0123581544736591
1.0123581248470355
1.0123586094651189
1.0123581248617581
1.012363177191216
1.0123581249738856
1.0123888160444692
1.0123581241063917
1.0124316508531859
1.0228515392229149
1.0229046712912659
1.0228515416432535
1.022860281429038
1.0228515412825099
1.0228523774312801
1.0228515412375463
1.0228515921364751
1.0228515412355368
1.02285154334846
1.0228515412354802
1.0228515412984744
1.0228515412354791
1.0228515412368828
1.0228515412354791
1.022851541235527
1.0228515412354791
1.0228515412368828
1.0228515412354791
1.0228515412984744
1.0228515412354802
1.02285154334846
1.0228515412355368
1.0228515921364751
1.0228515412375463
1.0228523774312801
1.0228515412825099
1.022860281429038
1.0228515416432535
1.0229046712912659
1.0228515392229149
1.0229773699100257
1.0418767232759993
1.0419661765909765
1.0418767295817222
1.0418913769834706
1.0418767284729649
1.0418781201496048
1.0418767283431616
1.0418768122775619
1.0418767283374728
1.0418767317834066
1.041876728337314
1.0418767284387809
1.0418767283373112
1.041876728339542
1.0418767283373107
1.0418767283373862
1.0418767283373107
1.041876728339542
1.0418767283373112
1.0418767284387809
1.041876728337314
1.0418767317834066
1.0418767283374728
1.0418768122775619
1.0418767283431616
1.0418781201496048
1.0418767284729649
1.0418913769834706
1.0418767295817222
1.0419661765909765
1.0418767232759993
1.0420877279156189
1.0755093049456916
1.0756549984162165
1.0755093200715342
1.0755329231696735
1.0755093168670677
1.0755115276292473
1.0755093165187788
1.075509447506247
1.0755093165039427
1.0755093217727367
1.0755093165035332
1.0755093166552208
1.0755093165035257
1.0755093165067791
1.0755093165035254
1.0755093165036327
1.0755093165035254
1.0755093165067791
1.0755093165035257
1.0755093166552208
1.0755093165035332
1.0755093217727367
1.0755093165039427
1.075509447506247
1.0755093165187788
1.0755115276292473
1.0755093168670677
1.0755329231696735
1.0755093200715342
1.0756549984162165
1.0755093049456916
1.0758581800212434
1.1323890175950428
1.1326173276668332
1.132389050338936
1.1324253349917814
1.1323890418134857
1.1323923552858126
1.132389040964052
1.1323892313117867
1.1323890409292845
1.1323890483208499
1.1323890409283579
1.1323890411331123
1.1323890409283397
1.1323890409325534
1.1323890409283397
1.1323890409284725
1.1323890409283397
1.1323890409325534
1.1323890409283397
1.1323890411331123
1.1323890409283579
1.1323890483208499
1.1323890409292845
1.1323892313117867
1.132389040964052
1.1323923552858126
1.1323890418134857
1.1324253349917814
1.132389050338936
1.1326173276668332
1.1323890175950428
1.1329642401978293
1.2217541341745739
1.2220953862006254
1.2217541962416383
1.2218068871670194
1.2217541759359687
1.2217587967615346
1.221754174106241
1.2217544267044866
1.2217541740354989
1.2217541833074921
1.2217541740336975
1.2217541742753077
1.2217541740336633
1.2217541740383251
1.2217541740336626
1.2217541740338005
1.2217541740336626
1.2217541740383251
1.2217541740336633
1.2217541742753077
1.2217541740336975
1.2217541833074921
1.2217541740354989
1.2217544267044866
1.221754174106241
1.2217587967615346
1.2217541759359687
1.2218068871670194
1.2217541962416383
1.2220953862006254
1.2217541341745739
1.2227001388253087
1.3471320246220617
1.347611452364369
1.34713212494521
1.3472031285926473
1.3471320836710443
1.3471379470319171
1.3471320803673903
1.347132378543606
1.3471320802498938
1.3471320903525843
1.3471320802471263
1.3471320804888658
1.347132080247079
1.3471320802513476
1.3471320802470783
1.3471320802471918
1.3471320802470783
1.3471320802513476
1.347132080247079
1.3471320804888658
1.3471320802471263
1.3471320903525843
1.3471320802498938
1.347132378543606
1.3471320803673903
1.3471379470319171
1.3471320836710443
1.3472031285926473
1.34713212494521
1.347611452364369
1.3471320246220617
1.3486451353339457
1.4977776608130193
1.4983913467925754
1.4977777944551598
1.4978635220774266
1.4977777290815009
1.4977842737611573
1.4977777245057231
1.4977780288819915
1.4977777243596244
1.4977777337335865
1.4977777243565136
1.4977777245596622
1.4977777243564645
1.4977777243597037
1.4977777243564636
1.4977777243565431
1.4977777243564636
1.4977777243597037
1.4977777243564645
1.4977777245596622
1.4977777243565136
1.4977777337335865
1.4977777243596244
1.4977780288819915
1.4977777245057231
1.4977842737611573
1.4977777290815009
1.4978635220774266
1.4977777944551598
1.4983913467925754
1.4977776608130193
1.5
1.648552212065973
1.6492375084121591
1.6485523520491099
1.6486415785273822
1.6485522780776871
1.6485585365296809
1.6485522735312204
1.6485525393019544
1.6485522734012164
1.6485522808528799
1.6485522733987168
1.6485522735455083
1.6485522733986797
1.6485522734008058
1.648552273398679
1.648552273398727
1.648552273398679
1.6485522734008058
1.6485522733986797
1.6485522735455083
1.6485522733987168
1.6485522808528799
1.6485522734012164
1.6485525393019544
1.6485522735312204
1.6485585365296809
1.6485522780776871
1.6486415785273822
1.6485523520491099
1.6492375084121591
1.648552212065973
1.6513548646660543
1.774371321076226
1.775022657911137
1.7743714355256996
1.7744504652378472
1.7743713766103506
1.7743765098881519
1.7743713733505397
1.7743715749141555
1.7743713732654944
1.7743713784895732
1.7743713732639914
1.7743713733591207
1.7743713732639708
1.7743713732652429
1.7743713732639705
1.774371373263997
1.7743713732639705
1.7743713732652429
1.7743713732639708
1.7743713733591207
1.7743713732639914
1.7743713784895732
1.7743713732654944
1.7743715749141555
1.7743713733505397
1.7743765098881519
1.7743713766103506
1.7744504652378472
1.7743714355256996
1.775022657911137
1.774371321076226
1.7772998611746911
1.8644801082199844
1.8650113901546035
1.8644801840332543
1.8645407727757675
1.8644801492659318
1.8644838484840836
1.8644801474793158
1.864480284254602
1.86448014743572
1.8644801507787363
1.8644801474349937
1.8644801474924668
1.8644801474349855
1.8644801474357129
1.8644801474349855
1.8644801474349986
1.8644801474349855
1.8644801474357129
1.8644801474349855
1.8644801474924668
1.8644801474349937
1.8644801507787363
1.86448014743572
1.864480284254602
1.8644801474793158
1.8644838484840836
1.8644801492659318
1.8645407727757675
1.8644801840332543
1.8650113901546035
1.8644801082199844
1.8670357598021707
1.9222169965479268
1.9225991382138106
1.9222170386151698
1.9222584936388909
1.9222170222765438
1.9222194387792479
1.9222170214759811
1.9222171070791521
1.9222170214573213
1.9222170234668505
1.9222170214570236
1.9222170214902572
1.9222170214570202
1.9222170214574241
1.9222170214570202
1.9222170214570271
1.9222170214570202
1.9222170214574241
1.9222170214570202
1.9222170214902572
1.9222170214570236
1.9222170234668505
1.9222170214573213
1.9222171070791521
1.9222170214759811
1.9222194387792479
1.9222170222765438
1.9222584936388909
1.9222170386151698
1.9225991382138106
1.9222169965479268
1.9241418199787566
1.9566141316854639
1.9568639733886999
1.9566141516298745
1.9566402493116908
1.9566141451130052
1.9566156172825242
1.956614144802735
1.956614195466714
1.9566141447957182
1.9566141459542075
1.9566141447956089
1.9566141448143048
1.9566141447956076
1.9566141447958314
1.9566141447956076
1.9566141447956118
1.9566141447956076
1.9566141447958314
1.9566141447956076
1.9566141448143048
1.9566141447956089
1.9566141459542075
1.9566141447957182
1.956614195466714
1.956614144802735
1.9566156172825242
1.9566141451130052
1.9566402493116908
1.9566141516298745
1.9568639733886999
1.9566141316854639
1.9579122720843811
1.9762138533108866
1.9763663241923608
1.9762138615755931
1.9762293637344306
1.9762138592581491
1.9762147145093887
1.9762138591495804
1.9762138880362032
1.9762138591471716
1.9762138597969379
1.9762138591471361
1.9762138591574678
1.9762138591471354
1.9762138591472567
1.9762138591471354
1.9762138591471374
1.9762138591471354
1.9762138591472567
1.9762138591471354
1.9762138591574678
1.9762138591471361
1.9762138597969379
1.9762138591471716
1.9762138880362032
1.9762138591495804
1.9762147145093887
1.9762138592581491
1.9762293637344306
1.9762138615755931
1.9763663241923608
1.9762138533108866
1.9770226300899743
1.987091017895473
1.9871798014645521
1.9870910209706985
1.9870998811298504
1.98709102020815
1.987091501957543
1.9870910201727252
1.9870910362540402
1.9870910201719498
1.987091020530098
1.9870910201719378
1.9870910201775827
1.9870910201719378
1.9870910201720027
1.9870910201719378
1.9870910201719387
1.9870910201719378
1.9870910201720027
1.9870910201719378
1.9870910201775827
1.9870910201719378
1.987091020530098
1.9870910201719498
1.9870910362540402
1.9870910201727252
1.987091501957543
1.98709102020815
1.9870998811298504
1.9870910209706985
1.9871798014645521
1.987091017895473
1.9875683491468141
1.9930421456687943
1.9930914598237435
1.9930421467492268
1.9930470423058315
1.9930421465119845
1.9930424112713838
1.9930421465009331
1.9930421552949067
1.9930421465006924
1.9930421466956525
1.9930421465006889
1.9930421465037482
1.9930421465006887
1.9930421465007244
1.9930421465006887
1.9930421465006891
1.9930421465006887
1.9930421465007244
1.9930421465006887
1.9930421465037482
1.9930421465006889
1.9930421466956525
1.9930421465006924
1.9930421552949067
1.9930421465009331
1.9930424112713838
1.9930421465119845
1.9930470423058315
1.9930421467492268
1.9930914598237435
1.9930421456687943
1.993307149075715
1.9962555320851656
1.9962833442827368
1.9962555324252227
1.9962582523830972
1.99625553235272
1.996255678077828
1.9962555323493765
1.996255537159541
1.9962555323493039
1.9962555324554703
1.9962555323493034
1.9962555323509656
1.9962555323493034
1.9962555323493227
1.9962555323493034
1.9962555323493036
1.9962555323493034
1.9962555323493227
1.9962555323493034
1.9962555323509656
1.9962555323493034
1.9962555324554703
1.9962555323493039
1.996255537159541
1.9962555323493765
1.996255678077828
1.99625553235272
1.9962582523830972
1.9962555324252227
1.9962833442827368
1.9962555320851656
1.9964063974185799
1.9981007454021136
1.9980990115101303
1.9981007469395375
1.9981010598432647
1.99810074688338
1.9981007810391769
1.9981007468787164
1.9981007483892865
1.9981007468785927
1.9981007469177314
1.9981007468785907
1.9981007468792682
1.9981007468785907
1.9981007468785992
1.9981007468785907
1.9981007468785907
1.9981007468785907
1.9981007468785992
1.9981007468785907
1.9981007468792682
1.9981007468785907
1.9981007469177314
1.9981007468785927
1.9981007483892865
1.9981007468787164
1.9981007810391769
1.99810074688338
1.9981010598432647
1.9981007469395375
1.9980990115101303
1.9981007454021136
1.9980732653366724
1.998921648780523
1.9989303969630789
1.9989216487914623
1.9989224975324529
1.9989216487878572
1.9989216939323629
1.9989216487878003
1.9989216502689271
1.998921648787801
1.9989216488203283
1.998921648787801
1.998921648788307
1.998921648787801
1.9989216487878063
1.998921648787801
1.9989216487878012
1.998921648787801
1.9989216487878063
1.998921648787801
1.998921648788307
1.998921648787801
1.9989216488203283
1.998921648787801
1.9989216502689271
1.9989216487878003
1.9989216939323629
1.9989216487878572
1.9989224975324529
1.9989216487914623
1.9989303969630789
1.998921648780523
1.9989677689632452
2.0003934743505938
2.0002070924462165
2.0003935103143395
2.0003773553505462
2.0003935068060974
2.0003927485778039
2.0003935065992842
2.0003934846253864
2.0003935065941549
2.000393506165985
2.0003935065940701
2.0003935065881233
2.0003935065940697
2.0003935065940088
2.0003935065940697
2.0003935065940692
2.0003935065940697
2.0003935065940088
2.0003935065940697
2.0003935065881233
2.0003935065940701
2.000393506165985
2.0003935065941549
2.0003934846253864
2.0003935065992842
2.0003927485778039
2.0003935068060974
2.0003773553505462
2.0003935103143395
2.0002070924462165
2.0003934743505938
1.9994472213630763
1.9996894664462497
1.9996933846023199
1.9996894663260685
1.9996899091525444
1.999689466406001
1.9996894923187927
1.9996894664115084
1.999689467317801
1.999689466411672
1.9996894664324933
1.9996894664116753
1.9996894664120111
1.9996894664116753
1.9996894664116796
1.9996894664116753
1.9996894664116756
1.9996894664116753
1.9996894664116796
1.9996894664116753
1.9996894664120111
1.9996894664116753
1.9996894664324933
1.999689466411672
1.999689467317801
1.9996894664115084
1.9996894923187927
1.999689466406001
1.9996899091525444
1.9996894663260685
1.9996933846023199
1.9996894664462497
1.999704042886487
2.0034025147486396
2.0025265846423159
2.003402698457708
2.0033041240406844
2.0034025906770534
2.0033967825451486
2.0034025854790181
2.0034023805464138
2.0034025853582937
2.0034025806085753
2.0034025853563895
2.0034025852792712
2.0034025853563673
2.0034025853554471
2.0034025853563673
2.0034025853563509
2.0034025853563673
2.0034025853554471
2.0034025853563673
2.0034025852792712
2.0034025853563895
2.0034025806085753
2.0034025853582937
2.0034023805464138
2.0034025854790181
2.0033967825451486
2.0034025906770534
2.0033041240406844
2.003402698457708
2.0025265846423159
2.0034025147486396
1.9998415637808975
1.9999151889582765
1.9999151889582765
1.9999151889582765
1.9999151889582765
1.9999151889582765
1.9999151889582765
1.9999151889582765
1.9999151889582765
1.9999151889582765
1.9999151889582765
1.9999151889582765
1.9999151889582765
1.9999151889582765
1.9999151889582765
1.9999151889582765
1.9999151889582765
1.9999151889582765
1.9999151889582765
1.9999151889582765
1.9999151889582765
1.9999151889582765
1.9999151889582765
1.9999151889582765
1.9999151889582765
1.9999151889582765
1.9999151889582765
1.9999151889582765
1.9999151889582765
1.9999151889582765
1.9999151889582765
1.9999151889582765
1.9999151889582765
1.0044015231741692
1.0031217872399076
1.0044029984132392
1.0041128022400574
1.0044022838648061
1.0043662128015323
1.0044021866817421
1.004399498499571
1.0044021811887109
1.0044020502940145
1.0044021809950612
1.0044021765536342
1.0044021809901642
1.0044021808799808
1.0044021809900698
1.0044021809859309
1.0044021809900698
1.0044021808799808
1.0044021809901642
1.0044021765536342
1.0044021809950612
1.0044020502940145
1.0044021811887109
1.004399498499571
1.0044021866817421
1.0043662128015323
1.0044022838648061
1.0041128022400574
1.0044029984132392
1.0031217872399076
1.0044015231741692
1.0000453978687025
1.0000906829044789
1.0000892362199023
1.0000906827381537
1.0000904986340966
1.0000906826881948
1.0000906700763472
1.0000906826997158
1.0000906822551026
1.0000906827009324
1.0000906826965608
1.000090682700989
1.0000906827012879
1.0000906827009906
1.0000906827010068
1.0000906827009906
1.0000906827009906
1.0000906827009906
1.0000906827010068
1.0000906827009906
1.0000906827012879
1.000090682700989
1.0000906826965608
1.0000906827009324
1.0000906822551026
1.0000906826997158
1.0000906700763472
1.0000906826881948
1.0000904986340966
1.0000906827381537
1.0000892362199023
1.0000906829044789
1.0000848110417238
1.0016821978786219
1.001146306917752
1.0016825662532709
1.0015859972872074
1.0016825095696487
1.0016728713417016
1.0016825003785599
1.0016819074708181
1.001682499863032
1.0016824754665012
1.0016824998453859
1.0016824991329969
1.0016824998449605
1.0016824998295342
1.0016824998449521
1.0016824998444409
1.0016824998449521
1.0016824998295342
1.0016824998449605
1.0016824991329969
1.0016824998453859
1.0016824754665012
1.001682499863032
1.0016819074708181
1.0016825003785599
1.0016728713417016
1.0016825095696487
1.0015859972872074
1.0016825662532709
1.001146306917752
1.0016821978786219
1.0001584362191025
1.0002967080683598
1.0002967894719688
1.0002967083835013
1.0002967803761349
1.0002967083429388
1.0002967204434523
1.0002967083386789
1.0002967093449491
1.0002967083385088
1.000296708389679
1.0002967083385046
1.0002967083402674
1.0002967083385046
1.0002967083385483
1.0002967083385046
1.0002967083385061
1.0002967083385046
1.0002967083385483
1.0002967083385046
1.0002967083402674
1.0002967083385046
1.000296708389679
1.0002967083385088
1.0002967093449491
1.0002967083386789
1.0002967204434523
1.0002967083429388
1.0002967803761349
1.0002967083835013
1.0002967894719688
1.0002967080683598
1.0002959571135133
1.0009003669915122
1.0008012711090493
1.0009004000626891
1.0008863825979257
1.0009003984623017
1.0008992738150755
1.0009003980731761
1.0009003410443491
1.0009003980504372
1.0009003960786409
1.0009003980496696
1.0009003980006073
1.000900398049652
1.0009003980487383
1.000900398049652
1.0009003980496247
1.000900398049652
1.0009003980487383
1.000900398049652
1.0009003980006073
1.0009003980496696
1.0009003960786409
1.0009003980504372
1.0009003410443491
1.0009003980731761
1.0008992738150755
1.0009003984623017
1.0008863825979257
1.0009004000626891
1.0008012711090493
1.0009003669915122
1.0005527786369237
1.0010214799872648
1.001025345874992
1.0010214800299575
1.001022194119213
1.0010214800253918
1.001021555813066
1.0010214800247397
1.0010214850564212
1.0010214800247099
1.0010214802492552
1.0010214800247079
1.0010214800318238
1.0010214800247079
1.0010214800248738
1.0010214800247079
1.0010214800247152
1.0010214800247079
1.0010214800248738
1.0010214800247079
1.0010214800318238
1.0010214800247079
1.0010214802492552
1.0010214800247099
1.0010214850564212
1.0010214800247397
1.001021555813066
1.0010214800253918
1.001022194119213
1.0010214800299575
1.001025345874992
1.0010214799872648
1.001032231036755
1.0019492363940246
1.0019463714279333
1.0019492380776529
1.0019493931044876
1.0019492380628525
1.0019492993512062
1.0019492380513435
1.0019492438981938
1.0019492380506387
1.0019492383601634
1.0019492380506145
1.0019492380613977
1.0019492380506141
1.0019492380508825
1.0019492380506141
1.0019492380506247
1.0019492380506141
1.0019492380508825
1.0019492380506141
1.0019492380613977
1.0019492380506145
1.0019492383601634
1.0019492380506387
1.0019492438981938
1.0019492380513435
1.0019492993512062
1.0019492380628525
1.0019493931044876
1.0019492380776529
1.0019463714279333
1.0019492363940246
1.0019267346633276
1.0035561082627475
1.003569384086699
1.0035561084882718
1.0035585387889874
1.0035561084516769
1.0035563648943804
1.0035561084465179
1.0035561254060257
1.0035561084462552
1.0035561092008602
1.0035561084462472
1.0035561084700957
1.003556108446247
1.0035561084468043
1.003556108446247
1.0035561084462672
1.003556108446247
1.0035561084468043
1.003556108446247
1.0035561084700957
1.0035561084462472
1.0035561092008602
1.0035561084462552
1.0035561254060257
1.0035561084465179
1.0035563648943804
1.0035561084516769
1.0035585387889874
1.0035561084882718
1.003569384086699
1.0035561082627475
1.0035936025814203
1.0066295913519876
1.0066525579979277
1.0066295920640584
1.0066338694111094
1.0066295919463828
1.0066300473721548
1.0066295919299011
1.0066296221754056
1.0066295919290642
1.0066295932769476
1.0066295919290373
1.0066295919716446
1.0066295919290367
1.0066295919300334
1.0066295919290367
1.0066295919290724
1.0066295919290367
1.0066295919300334
1.0066295919290367
1.0066295919716446
1.0066295919290373
1.0066295932769476
1.0066295919290642
1.0066296221754056
1.0066295919299011
1.0066300473721548
1.0066295919463828
1.0066338694111094
1.0066295920640584
1.0066525579979277
1.0066295913519876
1.006692850924285
1.01231669333174
1.0123576068728217
1.0123166951719047
1.012324255336408
1.0123166947957485
1.0123174963954242
1.0123166947461013
1.0123167478118613
1.0123166947436195
1.0123166971010951
1.0123166947435416
1.0123166948178164
1.0123166947435389
1.0123166947452715
1.0123166947435389
1.0123166947436015
1.0123166947435389
1.0123166947452715
1.0123166947435389
1.0123166948178164
1.0123166947435416
1.0123166971010951
1.0123166947436195
1.0123167478118613
1.0123166947461013
1.0123174963954242
1.0123166947957485
1.012324255336408
1.0123166951719047
1.0123576068728217
1.01231669333174
1.0124316508531859
1.0227832471416276
1.0228520363782605
1.0227832519115123
1.0227960104022347
1.0227832507847678
1.0227846041840731
1.0227832506424543
1.0227833400230495
1.0227832506354455
1.022783254589084
1.0227832506352275
1.0227832507590913
1.0227832506352224
1.0227832506380903
1.0227832506352224
1.0227832506353238
1.0227832506352224
1.0227832506380903
1.0227832506352224
1.0227832507590913
1.0227832506352275
1.022783254589084
1.0227832506354455
1.0227833400230495
1.0227832506424543
1.0227846041840731
1.0227832507847678
1.0227960104022347
1.0227832519115123
1.0228520363782605
1.0227832471416276
1.0229773699100257
1.0417666444863261
1.0418781912586004
1.0417666558507108
1.0417873338996191
1.0417666526897058
1.0417688366342772
1.041766652311094
1.0417667954100573
1.0417666522928399
1.041766658557759
1.0417666522922817
1.0417666524862281
1.0417666522922673
1.0417666522967004
1.0417666522922673
1.041766652292422
1.0417666522922673
1.0417666522967004
1.0417666522922673
1.0417666524862281
1.0417666522922817
1.041766658557759
1.0417666522928399
1.0417667954100573
1.041766652311094
1.0417688366342772
1.0417666526897058
1.0417873338996191
1.0417666558507108
1.0418781912586004
1.0417666444863261
1.0420877279156189
1.0753362326869187
1.0755094825125115
1.0753362571852747
1.0753681386002045
1.0753362490418907
1.075339573101453
1.075336248126457
1.0753364621274311
1.0753362480836695
1.0753362572595664
1.075336248082388
1.07533624835998
1.0753362480823598
1.07533624808855
1.0753362480823598
1.075336248082569
1.0753362480823598
1.07533624808855
1.0753362480823598
1.07533624835998
1.075336248082388
1.0753362572595664
1.0753362480836695
1.0753364621274311
1.075336248126457
1.075339573101453
1.0753362490418907
1.0753681386002045
1.0753362571852747
1.0755094825125115
1.0753362326869187
1.0758581800212434
1.1321266903160998
1.1323827496097862
1.1321267369975536
1.1321730469909521
1.1321267182121939
1.1321314206187969
1.132126716254011
1.1321270090695239
1.1321267161664323
1.1321267282543959
1.1321267161639044
1.132126716514867
1.1321267161638502
1.1321267161713457
1.1321267161638495
1.1321267161640929
1.1321267161638495
1.1321267161713457
1.1321267161638502
1.132126716514867
1.1321267161639044
1.1321267282543959
1.1321267161664323
1.1321270090695239
1.132126716254011
1.1321314206187969
1.1321267182121939
1.1321730469909521
1.1321267369975536
1.1323827496097862
1.1321266903160998
1.1329642401978293
1.2213868234777496
1.2217439312689358
1.2213869001563054
1.2214495237274479
1.2213868626327569
1.2213929309273737
1.2213868590622323
1.2213872160962012
1.2213868589125554
1.2213868727550581
1.2213868589084866
1.2213868592844994
1.2213868589084056
1.2213868589158969
1.2213868589084038
1.221386858908631
1.2213868589084038
1.2213868589158969
1.2213868589084056
1.2213868592844994
1.2213868589084866
1.2213868727550581
1.2213868589125554
1.2213872160962012
1.2213868590622323
1.2213929309273737
1.2213868626327569
1.2214495237274479
1.2213869001563054
1.2217439312689358
1.2213868234777496
1.2227001388253087
1.346696282284177
1.3471595084609447
1.3466963886759675
1.3467734433106959
1.3466963275274428
1.3467032619862731
1.3466963223309931
1.3466966973594918
1.3466963221324686
1.3466963354270529
1.3466963221275228
1.3466963224567516
1.3466963221274335
1.3466963221334034
1.3466963221274328
1.3466963221275956
1.3466963221274328
1.3466963221334034
1.3466963221274335
1.3466963224567516
1.3466963221275228
1.3466963354270529
1.3466963221324686
1.3466966973594918
1.3466963223309931
1.3467032619862731
1.3466963275274428
1.3467734433106959
1.3466963886759675
1.3471595084609447
1.346696282284177
1.3486451353339457
1.4974138360379949
1.4979534560539873
1.4974139555291104
1.497496897177625
1.4974138811984139
1.4974206584811187
1.4974138756402502
1.4974142064024187
1.4974138754501662
1.4974138860072261
1.4974138754458972
1.4974138756810962
1.4974138754458266
1.4974138754496642
1.4974138754458262
1.4974138754459223
1.4974138754458262
1.4974138754496642
1.4974138754458266
1.4974138756810962
1.4974138754458972
1.4974138860072261
1.4974138754501662
1.4974142064024187
1.4974138756402502
1.4974206584811187
1.4974138811984139
1.497496897177625
1.4974139555291104
1.4979534560539873
1.4974138360379949
1.5
1.6484547641991356
1.6489962720044959
1.6484548690348673
1.6485307105429041
1.6484548054189041
1.648460405166845
1.6484548011941891
1.6484550479281268
1.6484548010639979
1.6484548081782759
1.6484548010613431
1.648454801204654