# vtk DataFile Version 3.0
Euler density step 214
ASCII
DATASET STRUCTURED_POINTS
DIMENSIONS 32 32 32
ORIGIN 0 0 0
SPACING 0.3125 0.3125 0.3125
POINT_DATA 32768
SCALARS density double 1
LOOKUP_TABLE default
1.0038921719126437
1.0019618032908011
1.0038947234150608
1.0033682716408669
1.0038940821301745
1.0038098206653836
1.0038939241062454
1.0038855376323066
1.0038939120292685
1.0038933554171459
1.0038939115322441
1.0038938854724762
1.0038939115195842
1.0038939106208387
1.0038939115194048
1.0038939114723047
1.0038939115194048
1.0038939106208387
1.0038939115195842
1.0038938854724762
1.0038939115322441
1.0038933554171459
1.0038939120292685
1.0038855376323066
1.0038939241062454
1.0038098206653836
1.0038940821301745
1.0033682716408669
1.0038947234150608
1.0019618032908011
1.0038921719126437
1.0000453978687025
1.0000883100262177
1.0000882705824823
1.0000883084219314
1.000088521691642
1.0000883085449235
1.0000883716668525
1.0000883086300945
1.000088317434791
1.0000883086384373
1.000088309379616
1.0000883086388108
1.0000883086807233
1.0000883086388197
1.0000883086405188
1.0000883086388197
1.0000883086389236
1.0000883086388197
1.0000883086405188
1.0000883086388197
1.0000883086807233
1.0000883086388108
1.000088309379616
1.0000883086384373
1.000088317434791
1.0000883086300945
1.0000883716668525
1.0000883085449235
1.000088521691642
1.0000883084219314
1.0000882705824823
1.0000883100262177
1.0000848110417238
1.0025084085908129
1.0015595757826943
1.0025090955865299
1.0022923490953091
1.0025090379843928
1.0024802107502568
1.0025090191113653
1.00250659830538
1.0025090178043825
1.0025088800678721
1.0025090177589913
1.0025090121587557
1.0025090177581837
1.0025090175888005
1.0025090177581846
1.0025090177503402
1.0025090177581846
1.0025090175888005
1.0025090177581837
1.0025090121587557
1.0025090177589913
1.0025088800678721
1.0025090178043825
1.00250659830538
1.0025090191113653
1.0024802107502568
1.0025090379843928
1.0022923490953091
1.0025090955865299
1.0015595757826943
1.0025084085908129
1.0001584362191025
1.00029409226213
1.0002956005634895
1.0002940923779089
1.0002945702666006
1.0002940923525041
1.0002941751155792
1.0002940923538641
1.0002941010204616
1.0002940923541719
1.0002940929548056
1.000294092354185
1.0002940923835986
1.000294092354185
1.0002940923552539
1.000294092354185
1.0002940923542443
1.000294092354185
1.0002940923552539
1.000294092354185
1.0002940923835986
1.000294092354185
1.0002940929548056
1.0002940923541719
1.0002941010204616
1.0002940923538641
1.0002941751155792
1.0002940923525041
1.0002945702666006
1.0002940923779089
1.0002956005634895
1.00029409226213
1.0002959571135133
1.0012128020666053
1.0009866063976181
1.0012128813000452
1.001170920195712
1.0012128813472576
1.0012083038574531
1.0012128805168383
1.0012125597229562
1.0012128804630447
1.0012128650237127
1.0012128804617111
1.0012128799263031
1.0012128804617173
1.0012128804478717
1.0012128804617195
1.0012128804611731
1.0012128804617195
1.0012128804478717
1.0012128804617173
1.0012128799263031
1.0012128804617111
1.0012128650237127
1.0012128804630447
1.0012125597229562
1.0012128805168383
1.0012083038574531
1.0012128813472576
1.001170920195712
1.0012128813000452
1.0009866063976181
1.0012128020666053
1.0005527786369237
1.0010151542052732
1.0010230630889159
1.0010151542693611
1.0010169936638447
1.0010151542639318
1.0010154150665209
1.0010151542625212
1.001015178389445
1.0010151542624188
1.0010151558101403
1.0010151542624148
1.0010151543346586
1.0010151542624146
1.0010151542649635
1.0010151542624146
1.0010151542625549
1.0010151542624146
1.0010151542649635
1.0010151542624146
1.0010151543346586
1.0010151542624148
1.0010151558101403
1.0010151542624188
1.001015178389445
1.0010151542625212
1.0010154150665209
1.0010151542639318
1.0010169936638447
1.0010151542693611
1.0010230630889159
1.0010151542052732
1.001032231036755
1.0020012232385715
1.0019846122488609
1.0020012282736193
1.001999747905455
1.0020012284583537
1.0020012537117566
1.0020012284404933
1.0020012449003648
1.0020012284394004
1.0020012300800409
1.0020012284394004
1.0020012285337638
1.0020012284394024
1.0020012284431454
1.0020012284394026
1.0020012284396227
1.0020012284394026
1.0020012284431454
1.0020012284394024
1.0020012285337638
1.0020012284394004
1.0020012300800409
1.0020012284394004
1.0020012449003648
1.0020012284404933
1.0020012537117566
1.0020012284583537
1.001999747905455
1.0020012282736193
1.0019846122488609
1.0020012232385715
1.0019267346633276
1.0035373528131588
1.0035633861878177
1.0035373534285286
1.0035433711954345
1.0035373533938432
1.0035382031708751
1.0035373533791807
1.0035374317782646
1.0035373533780372
1.0035373583960998
1.0035373533779892
1.0035373536117076
1.0035373533779872
1.0035373533862146
1.0035373533779872
1.0035373533784369
1.0035373533779872
1.0035373533862146
1.0035373533779872
1.0035373536117076
1.0035373533779892
1.0035373583960998
1.0035373533780372
1.0035374317782646
1.0035373533791807
1.0035382031708751
1.0035373533938432
1.0035433711954345
1.0035373534285286
1.0035633861878177
1.0035373528131588
1.0035936025814203
1.0066058121163663
1.0066489511469641
1.0066058140722558
1.0066161051898386
1.0066058139613423
1.0066072939944333
1.0066058139151781
1.0066059518018478
1.0066058139116063
1.0066058227805192
1.0066058139114515
1.0066058143253787
1.0066058139114467
1.0066058139260208
1.0066058139114467
1.0066058139122436
1.0066058139114467
1.0066058139260208
1.0066058139114467
1.0066058143253787
1.0066058139114515
1.0066058227805192
1.0066058139116063
1.0066059518018478
1.0066058139151781
1.0066072939944333
1.0066058139613423
1.0066161051898386
1.0066058140722558
1.0066489511469641
1.0066058121163663
1.006692850924285
1.0122677569998746
1.0123462725297392
1.0122677619237406
1.0122861227879314
1.0122677614925428
1.0122703735022636
1.0122677613494664
1.0122680031447069
1.012267761338538
1.0122677768213162
1.0122677613380591
1.0122677620579521
1.0122677613380446
1.0122677613633024
1.0122677613380442
1.0122677613394202
1.0122677613380442
1.0122677613633024
1.0122677613380446
1.0122677620579521
1.0122677613380591
1.0122677768213162
1.012267761338538
1.0122680031447069
1.0122677613494664
1.0122703735022636
1.0122677614925428
1.0122861227879314
1.0122677619237406
1.0123462725297392
1.0122677569998746
1.0124316508531859
1.0227108180540265
1.0228415164840088
1.0227108308192541
1.0227415670735398
1.0227108294003338
1.0227152139814455
1.0227108289836739
1.0227112348414553
1.0227108289523057
1.0227108548840669
1.0227108289509383
1.0227108301522221
1.0227108289508957
1.0227108289928419
1.0227108289508948
1.0227108289531659
1.0227108289508948
1.0227108289928419
1.0227108289508957
1.0227108301522221
1.0227108289509383
1.0227108548840669
1.0227108289523057
1.0227112348414553
1.0227108289836739
1.0227152139814455
1.0227108294003338
1.0227415670735398
1.0227108308192541
1.0228415164840088
1.0227108180540265
1.0229773699100257
1.0416652328127527
1.0418762154535048
1.0416652637719839
1.0417149453609289
1.0416652593883242
1.0416723376039871
1.0416652582491102
1.0416659106160679
1.0416652581650647
1.0416652995650488
1.0416652581614254
1.0416652600627128
1.0416652581613131
1.0416652582270312
1.0416652581613099
1.0416652581648282
1.0416652581613099
1.0416652582270312
1.0416652581613131
1.0416652600627128
1.0416652581614254
1.0416652995650488
1.0416652581650647
1.0416659106160679
1.0416652582491102
1.0416723376039871
1.0416652593883242
1.0417149453609289
1.0416652637719839
1.0418762154535048
1.0416652328127527
1.0420877279156189
1.07520593974751
1.0755343025119868
1.0752060094067668
1.075283065563188
1.0752059968422354
1.0752168967335993
1.0752059939557501
1.0752069872036263
1.0752059937487715
1.0752060558615826
1.0752059937399181
1.0752059965436036
1.0752059937396445
1.0752059938346987
1.0752059937396379
1.075205993744623
1.0752059937396379
1.0752059938346987
1.0752059937396445
1.0752059965436036
1.0752059937399181
1.0752060558615826
1.0752059937487715
1.0752069872036263
1.0752059939557501
1.0752168967335993
1.0752059968422354
1.075283065563188
1.0752060094067668
1.0755343025119868
1.07520593974751
1.0758581800212434
1.131967695863324
1.1324599001420284
1.131967839511943
1.1320821220526007
1.1319678065481691
1.1319837091463669
1.1319677998767668
1.1319692169262006
1.1319677994172244
1.1319678856589217
1.1319677993980191
1.131967803172325
1.131967799397434
1.131967799521113
1.1319677993974209
1.1319677994036728
1.1319677993974209
1.131967799521113
1.131967799397434
1.131967803172325
1.1319677993980191
1.1319678856589217
1.1319677994172244
1.1319692169262006
1.1319677998767668
1.1319837091463669
1.1319678065481691
1.1320821220526007
1.131967839511943
1.1324599001420284
1.131967695863324
1.1329642401978293
1.2211815795448062
1.2218873338065477
1.2211818442777611
1.2213429202134511
1.2211817668532996
1.2212035696637549
1.2211817530876716
1.221183624810338
1.2211817521896406
1.2211818611118053
1.2211817521534922
1.2211817566849343
1.2211817521524269
1.2211817522929242
1.2211817521524018
1.2211817521590989
1.2211817521524018
1.2211817522929242
1.2211817521524269
1.2211817566849343
1.2211817521534922
1.2211818611118053
1.2211817521896406
1.221183624810338
1.2211817530876716
1.2212035696637549
1.2211817668532996
1.2213429202134511
1.2211818442777611
1.2218873338065477
1.2211815795448062
1.2227001388253087
1.346367936928144
1.3473248449977793
1.3463683616656761
1.3465818574464592
1.3463682037434539
1.3463959177917153
1.3463681791875364
1.3463704275713337
1.3463681777024801
1.346368300083439
1.3463681776463678
1.3463681823740334
1.3463681776448151
1.3463681777802061
1.3463681776447824
1.3463681776507188
1.3463681776447824
1.3463681777802061
1.3463681776448151
1.3463681823740334
1.3463681776463678
1.346368300083439
1.3463681777024801
1.3463704275713337
1.3463681791875364
1.3463959177917153
1.3463682037434539
1.3465818574464592
1.3463683616656761
1.3473248449977793
1.346367936928144
1.3486451353339457
1.4967783548843592
1.4979823773797789
1.496778932191021
1.497038543528161
1.4967786719996232
1.4968104112881104
1.4967786368530727
1.4967810240639512
1.4967786349336631
1.4967787542690563
1.4967786348675016
1.4967786390767372
1.4967786348658274
1.4967786349754713
1.4967786348657959
1.4967786348701606
1.4967786348657959
1.4967786349754713
1.4967786348658274
1.4967786390767372
1.4967786348675016
1.4967787542690563
1.4967786349336631
1.4967810240639512
1.4967786368530727
1.4968104112881104
1.4967786719996232
1.497038543528161
1.496778932191021
1.4979823773797789
1.4967783548843592
1.5
1.6473058665249694
1.6486668364718184
1.6473064998120361
1.6475852718606314
1.6473061850176656
1.6473378516090287
1.647306147837746
1.6473083379187883
1.647306146020421
1.6473062461730941
1.647306145963735
1.6473061491864374
1.6473061459624332
1.6473061460388905
1.6473061459624097
1.647306145965179
1.6473061459624097
1.6473061460388905
1.6473061459624332
1.6473061491864374
1.647306145963735
1.6473062461730941
1.647306146020421
1.6473083379187883
1.647306147837746
1.6473378516090287
1.6473061850176656
1.6475852718606314
1.6473064998120361
1.6486668364718184
1.6473058665249694
1.6513548646660543
1.7729663070042503
1.7743095708098495
1.7729668559294873
1.7732251891908613
1.7729665851771956
1.7729938183346468
1.7729665564936257
1.7729682987022126
1.7729665552205676
1.7729666288514838
1.7729665551841352
1.7729665573733522
1.7729665551833631
1.7729665552313503
1.7729665551833507
1.7729665551849576
1.7729665551833507
1.7729665552313503
1.7729665551833631
1.7729665573733522
1.7729665551841352
1.7729666288514838
1.7729665552205676
1.7729682987022126
1.7729665564936257
1.7729938183346468
1.7729665851771956
1.7732251891908613
1.7729668559294873
1.7743095708098495
1.7729663070042503
1.7772998611746911
1.8630990838609403
1.8642522805485098
1.8630994705030257
1.86330744408101
1.8630992978092547
1.8631198184647573
1.8630992808685656
1.8631005120456716
1.8630992801698105
1.8630993290666131
1.8630992801510811
1.863099281519305
1.8630992801507102
1.8630992801789645
1.8630992801507036
1.8630992801515938
1.8630992801507036
1.8630992801789645
1.8630992801507102
1.863099281519305
1.8630992801510811
1.8630993290666131
1.8630992801698105
1.8631005120456716
1.8630992808685656
1.8631198184647573
1.8630992978092547
1.86330744408101
1.8630994705030257
1.8642522805485098
1.8630990838609403
1.8670357598021707
1.9210358059670978
1.9219106903212093
1.9210360342712656
1.9211849954286568
1.9210359469194243
1.9210498777565652
1.9210359387685629
1.9210367347386557
1.9210359384494728
1.9210359686616016
1.9210359384413187
1.9210359392512366
1.9210359384411635
1.9210359384572129
1.9210359384411611
1.9210359384416478
1.9210359384411611
1.9210359384572129
1.9210359384411635
1.9210359392512366
1.9210359384413187
1.9210359686616016
1.9210359384494728
1.9210367347386557
1.9210359387685629
1.9210498777565652
1.9210359469194243
1.9211849954286568
1.9210360342712656
1.9219106903212093
1.9210358059670978
1.9241418199787566
1.9557190866400511
1.9563194795245831
1.9557192019428455
1.9558167279359655
1.9557191647571928
1.9557279210104634
1.9557191613904139
1.9557196444141407
1.9557191612632512
1.9557191790334767
1.9557191612601061
1.9557191617230896
1.9557191612600484
1.9557191612689835
1.9557191612600475
1.9557191612603124
1.9557191612600475
1.9557191612689835
1.9557191612600484
1.9557191617230896
1.9557191612601061
1.9557191790334767
1.9557191612632512
1.9557196444141407
1.9557191613904139
1.9557279210104634
1.9557191647571928
1.9558167279359655
1.9557192019428455
1.9563194795245831
1.9557190866400511
1.9579122720843811
1.9756004860938736
1.9759817602349414
1.9756005369713057
1.9756602958118268
1.9756005230164639
1.9756057330838854
1.9756005217731529
1.975600802313265
1.9756005217272925
1.9756005318377645
1.9756005217261863
1.9756005219848589
1.9756005217261643
1.9756005217310744
1.9756005217261641
1.9756005217263066
1.9756005217261641
1.9756005217310744
1.9756005217261643
1.9756005219848589
1.9756005217261863
1.9756005318377645
1.9756005217272925
1.975600802313265
1.9756005217731529
1.9756057330838854
1.9756005230164639
1.9756602958118268
1.9756005369713057
1.9759817602349414
1.9756004860938736
1.9770226300899743
1.9866989457997335
1.9869282557765622
1.9866989658903227
1.9867339518535696
1.9866989610998418
1.9867019485277337
1.9866989606761749
1.9866991189423455
1.9866989606607892
1.9866989662894787
1.9866989606604237
1.9866989608028198
1.986698960660418
1.9866989606630918
1.9866989606604177
1.9866989606604952
1.9866989606604177
1.9866989606630918
1.986698960660418
1.9866989608028198
1.9866989606604237
1.9866989662894787
1.9866989606607892
1.9866991189423455
1.9866989606761749
1.9867019485277337
1.9866989610998418
1.9867339518535696
1.9866989658903227
1.9869282557765622
1.9866989457997335
1.9875683491468141
1.9928336104246565
1.9929595829633708
1.9928336180405257
1.9928528665256535
1.9928336165256155
1.9928352563323231
1.9928336163890767
1.9928337029362719
1.9928336163841189
1.9928336194493452
1.9928336163840032
1.9928336164612219
1.9928336163840001
1.992833616385445
1.9928336163840001
1.9928336163840421
1.9928336163840001
1.992833616385445
1.9928336163840001
1.9928336164612219
1.9928336163840032
1.9928336194493452
1.9928336163841189
1.9928337029362719
1.9928336163890767
1.9928352563323231
1.9928336165256155
1.9928528665256535
1.9928336180405257
1.9929595829633708
1.9928336104246565
1.993307149075715
1.9961181458586765
1.9961929997349597
1.9961181482996777
1.9961292102878871
1.9961181478203769
1.996119070661712
1.996118147778192
1.996118195835151
1.9961181477766867
1.9961181494632925
1.9961181477766532
1.9961181478188657
1.9961181477766525
1.9961181477774379
1.9961181477766525
1.9961181477766747
1.9961181477766525
1.9961181477774379
1.9961181477766525
1.9961181478188657
1.9961181477766532
1.9961181494632925
1.9961181477766867
1.996118195835151
1.996118147778192
1.996119070661712
1.9961181478203769
1.9961292102878871
1.9961181482996777
1.9961929997349597
1.9961181458586765
1.9964063974185799
1.9982725254353768
1.9982301948364609
1.9982725386698306
1.9982693203907804
1.9982725381297497
1.9982724591772849
1.9982725380384905
1.9982725409402573
1.9982725380344513
1.9982725383126889
1.9982725380343456
1.9982725380445407
1.9982725380343442
1.9982725380345794
1.9982725380343442
1.9982725380343516
1.9982725380343442
1.9982725380345794
1.9982725380343442
1.9982725380445407
1.9982725380343456
1.9982725383126889
1.9982725380344513
1.9982725409402573
1.9982725380384905
1.9982724591772849
1.9982725381297497
1.9982693203907804
1.9982725386698306
1.9982301948364609
1.9982725254353768
1.9980732653366724
1.998876753661545
1.9989011622599395
1.9988767537497525
1.9988803391503391
1.9988767537372745
1.9988770504847102
1.9988767537381811
1.9988767690675531
1.9988767537382879
1.998876754272285
1.998876753738291
1.9988767537515657
1.998876753738291
1.998876753738537
1.998876753738291
1.9988767537382983
1.998876753738291
1.998876753738537
1.998876753738291
1.9988767537515657
1.998876753738291
1.998876754272285
1.9988767537382879
1.9988767690675531
1.9988767537381811
1.9988770504847102
1.9988767537372745
1.9988803391503391
1.9988767537497525
1.9989011622599395
1.998876753661545
1.9989677689632452
2.0013599482954687
2.0007973569246427
2.0013601377147721
2.0012813293098017
2.0013601110073527
2.0013540623942112
2.0013601081671668
2.0013598211502468
2.0013601080529706
2.0013600988906908
2.0013601080500596
2.0013601078412311
2.0013601080500059
2.0013601080464567
2.0013601080500045
2.0013601080499113
2.0013601080500045
2.0013601080464567
2.0013601080500059
2.0013601078412311
2.0013601080500596
2.0013600988906908
2.0013601080529706
2.0013598211502468
2.0013601081671668
2.0013540623942112
2.0013601110073527
2.0012813293098017
2.0013601377147721
2.0007973569246427
2.0013599482954687
1.9994472213630763
1.9996781650801221
1.9996883533168099
1.9996781641921419
1.9996800129452712
1.9996781647184965
1.9996783413252082
1.9996781647863648
1.9996781748804724
1.9996781647897952
1.9996781651685485
1.9996781647898991
1.9996781647998632
1.999678164789902
1.999678164790095
1.999678164789902
1.9996781647899069
1.999678164789902
1.999678164790095
1.999678164789902
1.9996781647998632
1.9996781647898991
1.9996781651685485
1.9996781647897952
1.9996781748804724
1.9996781647863648
1.9996783413252082
1.9996781647184965
1.9996800129452712
1.9996781641921419
1.9996883533168099
1.9996781650801221
1.999704042886487
2.0046169201046857
2.0029343381341644
2.0046177536617678
2.0043142110585452
2.0046172877014214
2.0045881461969115
2.0046172453998596
2.0046155693773402
2.0046172437389846
2.0046171804555177
2.0046172436965835
2.0046172420218187
2.0046172436957854
2.0046172436631937
2.0046172436957743
2.0046172436948089
2.0046172436957743
2.0046172436631937
2.0046172436957854
2.0046172420218187
2.0046172436965835
2.0046171804555177
2.0046172437389846
2.0046155693773402
2.0046172453998596
2.0045881461969115
2.0046172877014214
2.0043142110585452
2.0046177536617678
2.0029343381341644
2.0046169201046857
1.9998415637808975
1.9999151889582765
1.9999151889582765
1.9999151889582765
1.9999151889582765
1.9999151889582765
1.9999151889582765
1.9999151889582765
1.9999151889582765
1.9999151889582765
1.9999151889582765
1.9999151889582765
1.9999151889582765
1.9999151889582765
1.9999151889582765
1.9999151889582765
1.9999151889582765
1.9999151889582765
1.9999151889582765
1.9999151889582765
1.9999151889582765
1.9999151889582765
1.9999151889582765
1.9999151889582765
1.9999151889582765
1.9999151889582765
1.9999151889582765
1.9999151889582765
1.9999151889582765
1.9999151889582765
1.9999151889582765
1.9999151889582765
1.9999151889582765
1.0046462481105076
1.0028986921030574
1.0046501104827383
1.004040990892666
1.0046485802170801
1.00452533179144
1.0046481478923766
1.0046331054808455
1.0046481033643699
1.0046469063250731
1.0046481007152428
1.0046480344498485
1.0046481006056385
1.004648097923188
1.0046481006022323
1.0046481004377967
1.0046481006022323
1.004648097923188
1.0046481006056385
1.0046480344498485
1.0046481007152428
1.0046469063250731
1.0046481033643699
1.0046331054808455
1.0046481478923766
1.00452533179144
1.0046485802170801
1.004040990892666
1.0046501104827383
1.0028986921030574
1.0046462481105076
1.0000453978687025
1.000090201101431
1.0000885889780626
1.0000901994198907
1.0000899349474681
1.000090199265006
1.0000901860525069
1.0000901994050726
1.000090201482486
1.0000901994285034
1.0000901998278322
1.0000901994302831
1.000090199463066
1.0000901994303681
1.0000901994320588
1.000090199430371
1.0000901994304925
1.000090199430371
1.0000901994320588
1.0000901994303681
1.000090199463066
1.0000901994302831
1.0000901998278322
1.0000901994285034
1.000090201482486
1.0000901994050726
1.0000901860525069
1.000090199265006
1.0000899349474681
1.0000901994198907
1.0000885889780626
1.000090201101431
1.0000848110417238
1.0023600344925985
1.0012964300846932
1.0023612798815089
1.002055651664713
1.0023610891065748
1.0023109061957909
1.002361018777413
1.0023559319689117
1.0023610118627642
1.0023606677928631
1.0023610114746695
1.0023609949843673
1.0023610114595096
1.0023610108733105
1.0023610114590642
1.0023610114271337
1.0023610114590642
1.0023610108733105
1.0023610114595096
1.0023609949843673
1.0023610114746695
1.0023606677928631
1.0023610118627642
1.0023559319689117
1.002361018777413
1.0023109061957909
1.0023610891065748
1.002055651664713
1.0023612798815089
1.0012964300846932
1.0023600344925985
1.0001584362191025
1.0002984607874328
1.0002980679760201
1.0002984623531515
1.0002985568902405
1.0002984621087099
1.0002985068686367
1.0002984620663544
1.0002984690685661
1.0002984620640716
1.0002984626817888
1.0002984620640194
1.0002984620998328
1.0002984620640201
1.0002984620654978
1.0002984620640203
1.0002984620641118
1.0002984620640203
1.0002984620654978
1.0002984620640201
1.0002984620998328
1.0002984620640194
1.0002984626817888
1.0002984620640716
1.0002984690685661
1.0002984620663544
1.0002985068686367
1.0002984621087099
1.0002985568902405
1.0002984623531515
1.0002980679760201
1.0002984607874328
1.0002959571135133
1.0013531997063254
1.0010286865605136
1.0013533778979158
1.001280043030141
1.0013533710754443
1.0013437137102468
1.0013533661545193
1.0013525578620475
1.0013533656638371
1.0013533194513995
1.0013533656368607
1.0013533637316054
1.00135336563585
1.0013533655768243
1.0013533656358224
1.0013533656329909
1.0013533656358224
1.0013533655768243
1.00135336563585
1.0013533637316054
1.0013533656368607
1.0013533194513995
1.0013533656638371
1.0013525578620475
1.0013533661545193
1.0013437137102468
1.0013533710754443
1.001280043030141
1.0013533778979158
1.0010286865605136
1.0013531997063254
1.0005527786369237
1.0010136386983672
1.0010224210249958
1.0010136390241102
1.0010159770439007
1.0010136389988584
1.0010140168688848
1.0010136389909789
1.0010136781014547
1.0010136389903665
1.0010136417454556
1.0010136389903377
1.0010136391293245
1.0010136389903372
1.0010136389955662
1.0010136389903372
1.0010136389906406
1.0010136389903372
1.0010136389955662
1.0010136389903372
1.0010136391293245
1.0010136389903377
1.0010136417454556
1.0010136389903665
1.0010136781014547
1.0010136389909789
1.0010140168688848
1.0010136389988584
1.0010159770439007
1.0010136390241102
1.0010224210249958
1.0010136386983672
1.001032231036755
1.002051581816999
1.0020136496431897
1.0020515965636971
1.002045919817262
1.002051596798764
1.0020511962784135
1.0020515965878631
1.0020515901416143
1.002051596565267
1.0020515977203617
1.0020515965640344
1.0020515966763819
1.00205159656399
1.002051596569608
1.0020515965639882
1.0020515965643708
1.0020515965639882
1.002051596569608
1.00205159656399
1.0020515966763819
1.0020515965640344
1.0020515977203617
1.002051596565267
1.0020515901416143
1.0020515965878631
1.0020511962784135
1.002051596798764
1.002045919817262
1.0020515965636971
1.0020136496431897
1.002051581816999
1.0019267346633276
1.003528984546066
1.0035590903904241
1.0035289857401228
1.0035368880948388
1.0035289856156169
1.003530249519335
1.0035289855709546
1.0035291155235146
1.0035289855669491
1.0035289946822332
1.0035289855667426
1.0035289860252063
1.0035289855667351
1.003528985583948
1.0035289855667349
1.0035289855677287
1.0035289855667349
1.003528985583948
1.0035289855667351
1.0035289860252063
1.0035289855667426
1.0035289946822332
1.0035289855669491
1.0035291155235146
1.0035289855709546
1.003530249519335
1.0035289856156169
1.0035368880948388
1.0035289857401228
1.0035590903904241
1.003528984546066
1.0035936025814203
1.0066024567401137
1.0066486189316641
1.0066024607028938
1.0066153184551969
1.0066024603425607
1.0066045904754444
1.0066024602041461
1.0066026835310118
1.0066024601915771
1.0066024760259344
1.0066024601909278
1.0066024609920365
1.0066024601909049
1.0066024602210744
1.006602460190904
1.0066024601926467
1.006602460190904
1.0066024602210744
1.0066024601909049
1.0066024609920365
1.0066024601909278
1.0066024760259344
1.0066024601915771
1.0066026835310118
1.0066024602041461
1.0066045904754444
1.0066024603425607
1.0066153184551969
1.0066024607028938
1.0066486189316641
1.0066024567401137
1.006692850924285
1.0122522951595339
1.0123382128708036
1.0122523035331414
1.0122753577978467
1.0122523022601198
1.0122560479480254
1.0122523018732208
1.0122526905019582
1.0122523018392389
1.0122523292170376
1.0122523018375034
1.0122523032160962
1.0122523018374401
1.0122523018891494
1.0122523018374388
1.0122523018404168
1.0122523018374388
1.0122523018891494
1.0122523018374401
1.0122523032160962
1.0122523018375034
1.0122523292170376
1.0122523018392389
1.0122526905019582
1.0122523018732208
1.0122560479480254
1.0122523022601198
1.0122753577978467
1.0122523035331414
1.0123382128708036
1.0122522951595339
1.0124316508531859
1.0226948939419325
1.0228320122828118
1.0226949141101109
1.0227321729983199
1.0226949103686027
1.0227010119224691
1.0226949093258226
1.0226955443081505
1.0226949092357229
1.0226949539522123
1.0226949092311588
1.022694911476917
1.0226949092309936
1.0226949093148778
1.0226949092309898
1.0226949092357964
1.0226949092309898
1.0226949093148778
1.0226949092309936
1.022694911476917
1.0226949092311588
1.0226949539522123
1.0226949092357229
1.0226955443081505
1.0226949093258226
1.0227010119224691
1.0226949103686027
1.0227321729983199
1.0226949141101109
1.0228320122828118
1.0226948939419325
1.0229773699100257
1.0416502189386558
1.0418613858436918
1.0416502637854905
1.0417080202826423
1.0416502535458392
1.0416597385205695
1.0416502509430521
1.0416512358749996
1.0416502507232315
1.0416503196741744
1.0416502507122443
1.0416502541457859
1.041650250711849
1.0416502508387828
1.0416502507118384
1.0416502507190264
1.0416502507118384
1.0416502508387828
1.041650250711849
1.0416502541457859
1.0416502507122443
1.0416503196741744
1.0416502507232315
1.0416512358749996
1.0416502509430521
1.0416597385205695
1.0416502535458392
1.0417080202826423
1.0416502637854905
1.0418613858436918
1.0416502189386558
1.0420877279156189
1.0751936994189373
1.0755041487559815
1.0751937906666398
1.0752788935645274
1.0751937650199417
1.0752076888528934
1.0751937590970591
1.0751951898849792
1.0751937586122733
1.0751938572556494
1.0751937585885394
1.0751937634102195
1.0751937585877076
1.0751937587622624
1.0751937585876861
1.0751937585973488
1.0751937585876861
1.0751937587622624
1.0751937585877076
1.0751937634102195
1.0751937585885394
1.0751938572556494
1.0751937586122733
1.0751951898849792
1.0751937590970591
1.0752076888528934
1.0751937650199417
1.0752788935645274
1.0751937906666398
1.0755041487559815
1.0751936994189373
1.0758581800212434
1.1319536631553515
1.1323892007756025
1.1319538299433418
1.1320725717950109
1.1319537722718984
1.1319729118845558
1.1319537602332757
1.1319556802554678
1.1319537592897138
1.13195388769181
1.1319537592450055
1.1319537653057887
1.1319537592434841
1.1319537594546647
1.131953759243443
1.1319537592546696
1.131953759243443
1.1319537594546647
1.1319537592434841
1.1319537653057887
1.1319537592450055
1.13195388769181
1.1319537592897138
1.1319556802554678
1.1319537602332757
1.1319729118845558
1.1319537722718984
1.1320725717950109
1.1319538299433418
1.1323892007756025
1.1319536631553515
1.1329642401978293
1.2211655568185593
1.2217442890135539
1.2211658236635849
1.2213216858935882
1.2211657102758748
1.2211900852637394
1.2211656889812463
1.2211680288654596
1.2211656874095254
1.2211658358063497
1.2211656873387926
1.2211656939419346
1.2211656873365089
1.2211656875524937
1.2211656873364518
1.2211656873471999
1.2211656873364518
1.2211656875524937
1.2211656873365089
1.2211656939419346
1.2211656873387926
1.2211658358063497
1.2211656874095254
1.2211680288654596
1.2211656889812463
1.2211900852637394
1.2211657102758748
1.2213216858935882
1.2211658236635849
1.2217442890135539
1.2211655568185593
1.2227001388253087
1.3463911836663469
1.3471155581731022
1.3463915506151953
1.3465819646714692
1.3463913637564839
1.346419565984305
1.3463913325089514
1.3463938530640118
1.346391330394749
1.3463914778449655
1.3463913303069568
1.3463913363266256
1.3463913303043433
1.346391330484406
1.3463913303042845
1.3463913303124617
1.3463913303042845
1.346391330484406
1.3463913303043433
1.3463913363266256
1.3463913303069568
1.3463914778449655
1.346391330394749
1.3463938530640118
1.3463913325089514
1.346419565984305
1.3463913637564839
1.3465819646714692
1.3463915506151953
1.3471155581731022
1.3463911836663469
1.3486451353339457
1.4969756173868418
1.4978169268145851
1.4969760361815856
1.4971858881354099
1.4969757993673001
1.4970043856998105
1.4969757645037438
1.4969780859179584
1.496975762391642
1.4969758851784474
1.4969757623124293
1.49697576683569
1.4969757623102931
1.496975762432287
1.4969757623102493
1.4969757623152493
1.4969757623102493
1.496975762432287
1.4969757623102931
1.49697576683569
1.4969757623124293
1.4969758851784474
1.496975762391642
1.4969780859179584
1.4969757645037438
1.4970043856998105
1.4969757993673001
1.4971858881354099
1.4969760361815856
1.4978169268145851
1.4969756173868418
1.5
1.6478687568951691
1.6487415221882664
1.6478691358492308
1.6480695836671202
1.6478689226688339
1.6478936242164328
1.6478688947982374
1.6478707044349157
1.6478688932837702
1.6478689796767738
1.6478688932322758