# vtk DataFile Version 3.0
Euler density step 230
ASCII
DATASET STRUCTURED_POINTS
DIMENSIONS 32 32 32
ORIGIN 0 0 0
SPACING 0.3125 0.3125 0.3125
POINT_DATA 32768
SCALARS density double 1
LOOKUP_TABLE default
1.0042925982881206
1.0019901054786409
1.0042962373005611
1.0035765980868674
1.0042953843071158
1.0041607388370564
1.0042950957996577
1.0042793803393459
1.0042950679575879
1.0042938455103971
1.0042950665410402
1.0042949995303754
1.004295066495916
1.0042950637916215
1.0042950664950412
1.0042950663293599
1.0042950664950412
1.0042950637916215
1.004295066495916
1.0042949995303754
1.0042950665410402
1.0042938455103971
1.0042950679575879
1.0042793803393459
1.0042950957996577
1.0041607388370564
1.0042953843071158
1.0035765980868674
1.0042962373005611
1.0019901054786409
1.0042925982881206
1.0000453978687025
1.0000878844655576
1.0000881954447649
1.0000878816265919
1.0000882567183975
1.0000878817672052
1.0000879945903935
1.0000878819493257
1.0000878995239999
1.0000878819718113
1.0000878836627212
1.0000878819730561
1.0000878820832997
1.0000878819730923
1.000087881978269
1.0000878819730927
1.0000878819734582
1.0000878819730927
1.000087881978269
1.0000878819730923
1.0000878820832997
1.0000878819730561
1.0000878836627212
1.0000878819718113
1.0000878995239999
1.0000878819493257
1.0000879945903935
1.0000878817672052
1.0000882567183975
1.0000878816265919
1.0000881954447649
1.0000878844655576
1.0000848110417238
1.0030106127511889
1.001738613917899
1.0030117215911005
1.00267482626444
1.0030116336807204
1.0029590287208385
1.0030115911838735
1.003006398540109
1.0030115874719496
1.00301124054758
1.0030115873099006
1.0030115707653764
1.0030115873059304
1.0030115867194354
1.0030115873059002
1.0030115872740988
1.0030115873059002
1.0030115867194354
1.0030115873059304
1.0030115707653764
1.0030115873099006
1.00301124054758
1.0030115874719496
1.003006398540109
1.0030115911838735
1.0029590287208385
1.0030116336807204
1.00267482626444
1.0030117215911005
1.001738613917899
1.0030106127511889
1.0001584362191025
1.0002933253205888
1.0002953489082584
1.0002933255756306
1.0002940419729212
1.000293325513925
1.0002934686005096
1.0002933255156528
1.00029334291421
1.000293325516457
1.0002933269180192
1.0002933255164965
1.0002933255962716
1.0002933255164963
1.0002933255198652
1.0002933255164963
1.0002933255167141
1.0002933255164963
1.0002933255198652
1.0002933255164963
1.0002933255962716
1.0002933255164965
1.0002933269180192
1.000293325516457
1.00029334291421
1.0002933255156528
1.0002934686005096
1.000293325513925
1.0002940419729212
1.0002933255756306
1.0002953489082584
1.0002933253205888
1.0002959571135133
1.0014821251858048
1.0011264423846891
1.0014822780832837
1.0014056373872682
1.0014822794028788
1.0014724666841939
1.0014822770794347
1.001481468148693
1.0014822768863119
1.0014822310604963
1.0014822768796046
1.0014822750076429
1.0014822768795457
1.0014822768224256
1.0014822768795522
1.0014822768768861
1.0014822768795522
1.0014822768224256
1.0014822768795457
1.0014822750076429
1.0014822768796046
1.0014822310604963
1.0014822768863119
1.001481468148693
1.0014822770794347
1.0014724666841939
1.0014822794028788
1.0014056373872682
1.0014822780832837
1.0011264423846891
1.0014821251858048
1.0005527786369237
1.001008887939852
1.0010201196658828
1.0010088880855905
1.0010117989889327
1.0010088880759029
1.0010093560601465
1.0010088880723631
1.0010089375312141
1.0010088880720576
1.0010088917111237
1.0010088880720416
1.0010088882674157
1.0010088880720407
1.0010088880799897
1.0010088880720407
1.001008888072545
1.0010088880720407
1.0010088880799897
1.0010088880720407
1.0010088882674157
1.0010088880720416
1.0010088917111237
1.0010088880720576
1.0010089375312141
1.0010088880723631
1.0010093560601465
1.0010088880759029
1.0010117989889327
1.0010088880855905
1.0010201196658828
1.001008887939852
1.001032231036755
1.0020584190416806
1.0020215503394132
1.0020584307248983
1.0020533940685548
1.0020584312919232
1.0020581595426425
1.0020584312319516
1.0020584409843927
1.0020584312268659
1.002058433831329
1.0020584312267851
1.0020584314344871
1.0020584312267917
1.002058431237111
1.0020584312267924
1.002058431227526
1.0020584312267924
1.002058431237111
1.0020584312267917
1.0020584314344871
1.0020584312267851
1.002058433831329
1.0020584312268659
1.0020584409843927
1.0020584312319516
1.0020581595426425
1.0020584312919232
1.0020533940685548
1.0020584307248983
1.0020215503394132
1.0020584190416806
1.0019267346633276
1.0035174723189659
1.0035541678056126
1.0035174734778205
1.0035269281977441
1.0035174734374099
1.0035189870928731
1.0035174734048558
1.0035176329540694
1.0035174734017753
1.0035174851187385
1.003517473401621
1.0035174740295931
1.0035174734016155
1.0035174734271195
1.0035174734016155
1.0035174734032279
1.0035174734016155
1.0035174734271195
1.0035174734016155
1.0035174740295931
1.003517473401621
1.0035174851187385
1.0035174734017753
1.0035176329540694
1.0035174734048558
1.0035189870928731
1.0035174734374099
1.0035269281977441
1.0035174734778205
1.0035541678056126
1.0035174723189659
1.0035936025814203
1.0065828243658221
1.0066408599335235
1.0065828281128408
1.006598502616896
1.0065828279961964
1.0065854102264062
1.0065828278957771
1.0065831045098586
1.0065828278863065
1.0065828483812218
1.0065828278858309
1.0065828289893559
1.006582827885814
1.006582827930723
1.0065828278858138
1.0065828278886551
1.0065828278858138
1.006582827930723
1.006582827885814
1.0065828289893559
1.0065828278858309
1.0065828483812218
1.0065828278863065
1.0065831045098586
1.0065828278957771
1.0065854102264062
1.0065828279961964
1.006598502616896
1.0065828281128408
1.0066408599335235
1.0065828243658221
1.006692850924285
1.0122165362996662
1.012324255986579
1.0122165450361964
1.0122447389988984
1.012216544440778
1.0122211085651849
1.0122165441340476
1.0122170282858802
1.0122165441056552
1.0122165797585194
1.0122165441042106
1.01221654601535
1.0122165441041591
1.0122165441816418
1.0122165441041573
1.0122165441090412
1.0122165441041573
1.0122165441816418
1.0122165441041591
1.01221654601535
1.0122165441042106
1.0122165797585194
1.0122165441056552
1.0122170282858802
1.0122165441340476
1.0122211085651849
1.012216544440778
1.0122447389988984
1.0122165450361964
1.012324255986579
1.0122165362996662
1.0124316508531859
1.0226349646570152
1.0228110457800088
1.0226349866149564
1.0226814625599188
1.0226349845750959
1.0226425471059573
1.022634983701969
1.0226357873949443
1.0226349836223985
1.0226350427681361
1.0226349836183566
1.0226349867811233
1.0226349836182114
1.0226349837459612
1.0226349836182078
1.0226349836262218
1.0226349836182078
1.0226349837459612
1.0226349836182114
1.0226349867811233
1.0226349836183566
1.0226350427681361
1.0226349836223985
1.0226357873949443
1.022634983701969
1.0226425471059573
1.0226349845750959
1.0226814625599188
1.0226349866149564
1.0228110457800088
1.0226349646570152
1.0229773699100257
1.0415558195271588
1.0418351298660162
1.0415558712149096
1.0416298233932233
1.0415558647735865
1.0415679069233235
1.0415558624447399
1.0415571390105787
1.0415558622370615
1.041555955699546
1.0415558622265688
1.0415558671885876
1.041555862226194
1.0415558624248664
1.0415558622261833
1.0415558622385221
1.0415558622261833
1.0415558624248664
1.041555862226194
1.0415558671885876
1.0415558622265688
1.041555955699546
1.0415558622370615
1.0415571390105787
1.0415558624447399
1.0415679069233235
1.0415558647735865
1.0416298233932233
1.0415558712149096
1.0418351298660162
1.0415558195271588
1.0420877279156189
1.0750569378824013
1.0754834985074968
1.075057051150538
1.0751698687911366
1.0750570325337967
1.0750753174594423
1.075057026783099
1.0750589475807855
1.0750570262853394
1.0750571651482221
1.0750570262604842
1.0750570335206071
1.0750570262595978
1.0750570265452437
1.0750570262595727
1.0750570262769794
1.0750570262595727
1.0750570265452437
1.0750570262595978
1.0750570335206071
1.0750570262604842
1.0750571651482221
1.0750570262853394
1.0750589475807855
1.075057026783099
1.0750753174594423
1.0750570325337967
1.0751698687911366
1.075057051150538
1.0754834985074968
1.0750569378824013
1.0758581800212434
1.1317720448723494
1.1324000287381757
1.131772273627025
1.1319370394267343
1.131772224700035
1.1317985699468567
1.1317722117223554
1.1317749254283764
1.1317722106449033
1.1317724020823734
1.1317722105922912
1.1317722203218019
1.1317722105904406
1.1317722109613932
1.1317722105903909
1.131772210612239
1.1317722105903909
1.1317722109613932
1.1317722105904406
1.1317722203218019
1.1317722105922912
1.1317724020823734
1.1317722106449033
1.1317749254283764
1.1317722117223554
1.1317985699468567
1.131772224700035
1.1319370394267343
1.131772273627025
1.1324000287381757
1.1317720448723494
1.1329642401978293
1.220930696361608
1.2218164872478872
1.2209311122723259
1.2211602952166425
1.2209309975402469
1.2209667784511176
1.2209309713013843
1.22093453576877
1.2209309692403718
1.220931210598228
1.2209309691433123
1.2209309808477784
1.2209309691399994
1.220930969563746
1.2209309691399115
1.2209309691635237
1.2209309691399115
1.220930969563746
1.2209309691399994
1.2209309808477784
1.2209309691433123
1.220931210598228
1.2209309692403718
1.22093453576877
1.2209309713013843
1.2209667784511176
1.2209309975402469
1.2211602952166425
1.2209311122723259
1.2218164872478872
1.220930696361608
1.2227001388253087
1.346051165746418
1.3472344340420879
1.3460518286961611
1.3463526792810525
1.3460515946654306
1.3460969053183249
1.3460515483917566
1.3460558376024538
1.3460515450177626
1.346051818022691
1.3460515448680692
1.3460515572160883
1.3460515448632444
1.3460515452777786
1.3460515448631252
1.3460515448844543
1.3460515448631252
1.3460515452777786
1.3460515448632444
1.3460515572160883
1.3460515448680692
1.346051818022691
1.3460515450177626
1.3460558376024538
1.3460515483917566
1.3460969053183249
1.3460515946654306
1.3463526792810525
1.3460518286961611
1.3472344340420879
1.346051165746418
1.3486451353339457
1.4963836258924443
1.4978572007950444
1.4963845296530205
1.4967496176883097
1.4963841398506117
1.4964362957658497
1.4963840732527889
1.4963886759608835
1.4963840688582595
1.4963843390909319
1.4963840686798167
1.4963840798793016
1.4963840686745395
1.4963840690175205
1.4963840686744208
1.4963840686904792
1.4963840686744208
1.4963840690175205
1.4963840686745395
1.4963840798793016
1.4963840686798167
1.4963843390909319
1.4963840688582595
1.4963886759608835
1.4963840732527889
1.4964362957658497
1.4963841398506117
1.4967496176883097
1.4963845296530205
1.4978572007950444
1.4963836258924443
1.5
1.646825836509153
1.6484918423514623
1.6468268418131866
1.6472221032615837
1.6468263594903954
1.6468790890629181
1.6468262876035242
1.6468305802496703
1.6468262833570853
1.6468265144259537
1.6468262832009462
1.6468262919518308
1.646826283196746
1.6468262834411567
1.6468262831966587
1.6468262832070844
1.6468262831966587
1.6468262834411567
1.646826283196746
1.6468262919518308
1.6468262832009462
1.6468265144259537
1.6468262833570853
1.6468305802496703
1.6468262876035242
1.6468790890629181
1.6468263594903954
1.6472221032615837
1.6468268418131866
1.6484918423514623
1.646825836509153
1.6513548646660543
1.7724193127870325
1.7740833728925651
1.7724202024867124
1.7727923609300766
1.7724197757385476
1.772465912960413
1.7724197187487962
1.7724231944289568
1.7724197156972121
1.7724198886152895
1.7724197155943764
1.77241972164491
1.7724197155918266
1.7724197157479433
1.7724197155917782
1.7724197155979311
1.7724197155917782
1.7724197157479433
1.7724197155918266
1.77241972164491
1.7724197155943764
1.7724198886152895
1.7724197156972121
1.7724231944289568
1.7724197187487962
1.772465912960413
1.7724197757385476
1.7727923609300766
1.7724202024867124
1.7740833728925651
1.7724193127870325
1.7772998611746911
1.8625398028949656
1.8639962956202094
1.8625404444931537
1.8628458478440435
1.8625401640080743
1.8625755484449231
1.8625401293440151
1.8625426253663209
1.8625401276235332
1.8625402441538459
1.8625401275693347
1.8625401314019909
1.8625401275680766
1.8625401276611324
1.8625401275680524
1.8625401275715041
1.8625401275680524
1.8625401276611324
1.8625401275680766
1.8625401314019909
1.8625401275693347
1.8625402441538459
1.8625401276235332
1.8625426253663209
1.8625401293440151
1.8625755484449231
1.8625401640080743
1.8628458478440435
1.8625404444931537
1.8639962956202094
1.8625398028949656
1.8670357598021707
1.920531717201603
1.9216607640939196
1.9205321054749098
1.9207550279136603
1.9205319594082921
1.9205563679057889
1.9205319422427312
1.9205335778707624
1.920531941436407
1.9205320142645683
1.9205319414122382
1.9205319437029995
1.9205319414117012
1.9205319414649928
1.9205319414116919
1.9205319414135897
1.9205319414116919
1.9205319414649928
1.9205319414117012
1.9205319437029995
1.9205319414122382
1.9205320142645683
1.920531941436407
1.9205335778707624
1.9205319422427312
1.9205563679057889
1.9205319594082921
1.9207550279136603
1.9205321054749098
1.9216607640939196
1.920531717201603
1.9241418199787566
1.9553158443777532
1.9561066401889851
1.9553160454996232
1.9554644692260583
1.9553159816644687
1.9553315317493714
1.9553159743848199
1.9553169777122317
1.9553159740557691
1.9553160172637838
1.9553159740462462
1.9553159753647726
1.9553159740460428
1.9553159740758665
1.9553159740460389
1.955315974047074
1.9553159740460389
1.9553159740758665
1.9553159740460428
1.9553159753647726
1.9553159740462462
1.9553160172637838
1.9553159740557691
1.9553169777122317
1.9553159743848199
1.9553315317493714
1.9553159816644687
1.9554644692260583
1.9553160454996232
1.9561066401889851
1.9553158443777532
1.9579122720843811
1.9753112920121367
1.9758221366338822
1.9753113830443509
1.9754035801597929
1.975311358554567
1.9753207097091932
1.9753113558041622
1.9753119433463464
1.9753113556830093
1.9753113804231575
1.9753113556795905
1.9753113564198548
1.9753113556795172
1.9753113556959667
1.9753113556795161
1.975311355680077
1.9753113556795161
1.9753113556959667
1.9753113556795172
1.9753113564198548
1.9753113556795905
1.9753113804231575
1.9753113556830093
1.9753119433463464
1.9753113558041622
1.9753207097091932
1.975311358554567
1.9754035801597929
1.9753113830443509
1.9758221366338822
1.9753112920121367
1.9770226300899743
1.9865053978654832
1.9868172711296137
1.9865054347095676
1.9865600234346994
1.9865054261500992
1.9865108330442314
1.9865054251947858
1.9865057587263817
1.9865054251534244
1.9865054389910053
1.9865054251522776
1.9865054255611934
1.9865054251522545
1.9865054251612402
1.986505425152254
1.9865054251525578
1.986505425152254
1.9865054251612402
1.9865054251522545
1.9865054255611934
1.9865054251522776
1.9865054389910053
1.9865054251534244
1.9865057587263817
1.9865054251947858
1.9865108330442314
1.9865054261500992
1.9865600234346994
1.9865054347095676
1.9868172711296137
1.9865053978654832
1.9875683491468141
1.9927367385342383
1.9929062963197952
1.9927367529734301
1.9927666210399977
1.9927367502581406
1.9927397094079997
1.9927367499458752
1.9927369320381503
1.9927367499323227
1.9927367574604524
1.9927367499319508
1.9927367501535516
1.9927367499319413
1.992736749936793
1.9927367499319413
1.9927367499321056
1.9927367499319413
1.992736749936793
1.9927367499319413
1.9927367501535516
1.9927367499319508
1.9927367574604524
1.9927367499323227
1.9927369320381503
1.9927367499458752
1.9927397094079997
1.9927367502581406
1.9927666210399977
1.9927367529734301
1.9929062963197952
1.9927367385342383
1.993307149075715
1.996045954010057
1.9961498278877856
1.9960459586747128
1.9960634760551155
1.9960459577988245
1.9960476459716581
1.996045957701275
1.9960460597639675
1.9960459576971383
1.9960459618668798
1.9960459576970278
1.9960459578187424
1.9960459576970251
1.9960459576996727
1.9960459576970251
1.9960459576971135
1.9960459576970251
1.9960459576996727
1.9960459576970251
1.9960459578187424
1.9960459576970278
1.9960459618668798
1.9960459576971383
1.9960460597639675
1.996045957701275
1.9960476459716581
1.9960459577988245
1.9960634760551155
1.9960459586747128
1.9961498278877856
1.996045954010057
1.9964063974185799
1.9983897419794432
1.9983099634770329
1.9983897682453506
1.9983815619267138
1.9983897671461024
1.9983893735890146
1.9983897669055983
1.9983897606708494
1.998389766893002
1.9983897671623918
1.9983897668926176
1.9983897669118402
1.9983897668926105
1.998389766893216
1.9983897668926105
1.9983897668926351
1.9983897668926105
1.998389766893216
1.9983897668926105
1.9983897669118402
1.9983897668926176
1.9983897671623918
1.998389766893002
1.9983897606708494
1.9983897669055983
1.9983893735890146
1.9983897671461024
1.9983815619267138
1.9983897682453506
1.9983099634770329
1.9983897419794432
1.9980732653366724
1.9988526139424188
1.9988869429734808
1.9988526141299863
1.9988583799403243
1.9988526141141356
1.9988531658314257
1.998852614117451
1.9988526472061678
1.9988526141178238
1.9988526154590081
1.9988526141178395
1.9988526141566998
1.9988526141178398
1.9988526141186802
1.9988526141178398
1.9988526141178682
1.9988526141178398
1.9988526141186802
1.9988526141178398
1.9988526141566998
1.9988526141178395
1.9988526154590081
1.9988526141178238
1.9988526472061678
1.998852614117451
1.9988531658314257
1.9988526141141356
1.9988583799403243
1.9988526141299863
1.9988869429734808
1.9988526139424188
1.9989677689632452
2.0017955006820896
2.0010126695254531
2.0017958208532747
2.0016671858138642
2.0017957711469205
2.0017841313037272
2.0017957645833349
2.0017951135110028
2.0017957642717179
2.0017957397874384
2.0017957642624462
2.0017957636052244
2.0017957642622473
2.0017957642490876
2.0017957642622437
2.0017957642618374
2.0017957642622437
2.0017957642490876
2.0017957642622473
2.0017957636052244
2.0017957642624462
2.0017957397874384
2.0017957642717179
2.0017951135110028
2.0017957645833349
2.0017841313037272
2.0017957711469205
2.0016671858138642
2.0017958208532747
2.0010126695254531
2.0017955006820896
1.9994472213630763
1.9996727172233073
1.9996864316026166
1.9996727155781848
1.9996756120545256
1.9996727165027275
1.9996730420969691
1.9996727166521555
1.999672738576447
1.9996727166612422
1.9996727176299343
1.9996727166615669
1.9996727166915569
1.9996727166615753
1.9996727166622585
1.9996727166615758
1.9996727166615984
1.9996727166615758
1.9996727166622585
1.9996727166615753
1.9996727166915569
1.9996727166615669
1.9996727176299343
1.9996727166612422
1.999672738576447
1.9996727166521555
1.9996730420969691
1.9996727165027275
1.9996756120545256
1.9996727155781848
1.9996864316026166
1.9996727172233073
1.999704042886487
2.0050164537611597
2.0029899243444551
2.0050177749360527
2.0045908049589194
2.0050170555432985
2.0049687854627303
2.0050169739721628
2.005013705296423
2.0050169701229006
2.0050168249422504
2.0050169700073068
2.0050169654901326
2.0050169700047578
2.0050169699014075
2.0050169700047151
2.0050169700011122
2.0050169700047151
2.0050169699014075
2.0050169700047578
2.0050169654901326
2.0050169700073068
2.0050168249422504
2.0050169701229006
2.005013705296423
2.0050169739721628
2.0049687854627303
2.0050170555432985
2.0045908049589194
2.0050177749360527
2.0029899243444551
2.0050164537611597
1.9998415637808975
1.9999151889582765
1.9999151889582765
1.9999151889582765
1.9999151889582765
1.9999151889582765
1.9999151889582765
1.9999151889582765
1.9999151889582765
1.9999151889582765
1.9999151889582765
1.9999151889582765
1.9999151889582765
1.9999151889582765
1.9999151889582765
1.9999151889582765
1.9999151889582765
1.9999151889582765
1.9999151889582765
1.9999151889582765
1.9999151889582765
1.9999151889582765
1.9999151889582765
1.9999151889582765
1.9999151889582765
1.9999151889582765
1.9999151889582765
1.9999151889582765
1.9999151889582765
1.9999151889582765
1.9999151889582765
1.9999151889582765
1.9999151889582765
1.0046570502298686
1.0027848748968933
1.004662064341832
1.0039163643056117
1.0046602778762703
1.0044828190699393
1.0046596155347853
1.0046340605018278
1.004659530984489
1.0046571350914435
1.0046595249456358
1.0046593689202872
1.0046595246506644
1.004659517225134
1.0046595246399057
1.0046595241052567
1.0046595246399057
1.004659517225134
1.0046595246506644
1.0046593689202872
1.0046595249456358
1.0046571350914435
1.004659530984489
1.0046340605018278
1.0046596155347853
1.0044828190699393
1.0046602778762703
1.0039163643056117
1.004662064341832
1.0027848748968933
1.0046570502298686
1.0000453978687025
1.0000891648308494
1.000087914266202
1.0000891618436527
1.0000889561780786
1.0000891615692624
1.0000891641285385
1.0000891618395935
1.0000891684535476
1.0000891618938952
1.0000891630148314
1.0000891618988108
1.0000891619999306
1.0000891618990888
1.0000891619050643
1.0000891618991001
1.0000891618996022
1.0000891618991001
1.0000891619050643
1.0000891618990888
1.0000891619999306
1.0000891618988108
1.0000891630148314
1.0000891618938952
1.0000891684535476
1.0000891618395935
1.0000891641285385
1.0000891615692624
1.0000889561780786
1.0000891618436527
1.000087914266202
1.0000891648308494
1.0000848110417238
1.0025523747035994
1.0012851993850538
1.0025541493580763
1.0021298069747184
1.0025539041297005
1.0024714838294182
1.0025537752783471
1.0025438908822542
1.0025537597200602
1.0025529702723219
1.0025537586841844
1.0025537140782512
1.002553758636715
1.002553756768624
1.0025537586350877
1.0025537585153055
1.0025537586350877
1.002553756768624
1.002553758636715
1.0025537140782512
1.0025537586841844
1.0025529702723219
1.0025537597200602
1.0025438908822542
1.0025537752783471
1.0024714838294182
1.0025539041297005
1.0021298069747184
1.0025541493580763
1.0012851993850538
1.0025523747035994
1.0001584362191025
1.0002986667395608
1.0002981669915836
1.0002986692284128
1.0002987767147888
1.0002986688142848
1.0002987378522732
1.0002986687281261
1.0002986819001638
1.0002986687229685
1.0002986701139867
1.0002986687228705
1.0002986688186408
1.0002986687228754
1.0002986687275499
1.0002986687228761
1.0002986687232165
1.0002986687228761
1.0002986687275499
1.0002986687228754
1.0002986688186408
1.0002986687228705
1.0002986701139867
1.0002986687229685
1.0002986819001638
1.0002986687281261
1.0002987378522732
1.0002986688142848
1.0002987767147888
1.0002986692284128
1.0002981669915836
1.0002986667395608
1.0002959571135133
1.0015657474635677
1.0011091288006257
1.0015660440640297
1.0014457427538668
1.0015660364634968
1.0015473495681109
1.0015660257167711
1.0015641781473079
1.0015660244188487
1.0015658996943861
1.0015660243347866
1.0015660182656922
1.0015660243310958
1.0015660241091426
1.0015660243309763
1.0015660243184092
1.0015660243309763
1.0015660241091426
1.0015660243310958
1.0015660182656922
1.0015660243347866
1.0015658996943861
1.0015660244188487
1.0015641781473079
1.0015660257167711
1.0015473495681109
1.0015660364634968
1.0014457427538668
1.0015660440640297
1.0011091288006257
1.0015657474635677
1.0005527786369237
1.0010093601307728
1.0010209388517486
1.0010093607626944
1.0010128056795662
1.0010093607208188
1.0010099973318096
1.0010093607026069
1.0010094367671913
1.0010093607009356
1.0010093669149389
1.0010093607008501
1.001009361065416
1.0010093607008472
1.0010093607168398
1.0010093607008472
1.0010093607019279
1.0010093607008472
1.0010093607168398
1.0010093607008472
1.001009361065416
1.0010093607008501
1.0010093669149389
1.0010093607009356
1.0010094367671913
1.0010093607026069
1.0010099973318096
1.0010093607208188
1.0010128056795662
1.0010093607626944
1.0010209388517486
1.0010093601307728
1.001032231036755
1.0021224662080601
1.0020534124346643
1.0021224952364636
1.002109463149492
1.0021224961374273
1.002121169216909
1.0021224956100352
1.0021224251154384
1.0021224955413639
1.0021224946025251
1.0021224955369408
1.0021224956740353
1.0021224955367534
1.002122495548625
1.0021224955367469
1.0021224955378305
1.0021224955367469
1.002122495548625
1.0021224955367534
1.0021224956740353
1.0021224955369408
1.0021224946025251
1.0021224955413639
1.0021224251154384
1.0021224956100352
1.002121169216909
1.0021224961374273
1.002109463149492
1.0021224952364636
1.0020534124346643
1.0021224662080601
1.0019267346633276
1.0035147571066105
1.0035543051856579
1.0035147591617606
1.0035263606966429
1.0035147590031301
1.0035168773481999
1.0035147589137459
1.0035150100041845
1.0035147589039553
1.0035147793115939
1.0035147589033617
1.0035147600965659
1.0035147589033371
1.003514758955556
1.0035147589033362
1.0035147589068556
1.0035147589033362
1.003514758955556
1.0035147589033371
1.0035147600965659
1.0035147589033617
1.0035147793115939
1.0035147589039553
1.0035150100041845
1.0035147589137459
1.0035168773481999
1.0035147590031301
1.0035263606966429
1.0035147591617606
1.0035543051856579
1.0035147571066105
1.0035936025814203
1.0065954472274909
1.0066513595220679
1.0065954542913182
1.0066133583264592
1.00659545389187
1.0065989026726561
1.0065954536178239
1.0065958749955899
1.0065954535871124
1.0065954884326846
1.0065954535852355
1.0065954556430479
1.0065954535851567
1.0065954536757311
1.006595453585154
1.006595453591276
1.006595453585154
1.0065954536757311
1.0065954535851567
1.0065954556430479
1.0065954535852355
1.0065954884326846
1.0065954535871124
1.0065958749955899
1.0065954536178239
1.0065989026726561
1.00659545389187
1.0066133583264592
1.0065954542913182
1.0066513595220679
1.0065954472274909
1.006692850924285
1.0122222048418144
1.0123311727771382
1.0122222183436795
1.0122550663929182
1.0122222166381771
1.0122283396288805
1.0122222158981529
1.012222951072824
1.0122222158188621
1.0122222760010908
1.0122222158140837
1.0122222193444603
1.0122222158138812
1.0122222159684848
1.0122222158138752
1.0122222158242826
1.0122222158138752
1.0122222159684848
1.0122222158138812
1.0122222193444603
1.0122222158140837
1.0122222760010908
1.0122222158188621
1.012222951072824
1.0122222158981529
1.0122283396288805
1.0122222166381771
1.0122550663929182
1.0122222183436795
1.0123311727771382
1.0122222048418144
1.0124316508531859
1.0226580132078618
1.022827762502317
1.022658044765554
1.0227100814095273
1.0226580397108023
1.022667851985064
1.0226580377660173
1.022659222610022
1.0226580375610999
1.0226581347037129
1.0226580375488405
1.0226580432404837
1.0226580375483243
1.0226580377968078
1.0226580375483088
1.0226580375649643
1.0226580375483088
1.0226580377968078
1.0226580375483243
1.0226580432404837
1.0226580375488405
1.0226581347037129
1.0226580375610999
1.022659222610022
1.0226580377660173
1.022667851985064
1.0226580397108023
1.0227100814095273
1.022658044765554
1.022827762502317
1.0226580132078618
1.0229773699100257
1.0416055152904746
1.0418616393106916
1.0416055834794598
1.0416847609338875
1.0416055695977504
1.0416205817398385
1.0416055648659732
1.0416073778315411
1.0416055643789472
1.0416057124167668
1.0416055643501669
1.0416055729631313
1.0416055643489646
1.0416055647215738
1.0416055643489266
1.0416055643736386
1.0416055643489266
1.0416055647215738
1.0416055643489646
1.0416055729631313
1.0416055643501669
1.0416057124167668
1.0416055643789472
1.0416073778315411
1.0416055648659732
1.0416205817398385
1.0416055695977504
1.0416847609338875
1.0416055834794598
1.0418616393106916
1.0416055152904746
1.0420877279156189
1.0751466019363407
1.0755146011048522
1.075146737379699
1.0752611364400475
1.0751467026885024
1.0751683939227448
1.0751466921806745
1.0751492923226107
1.0751466911327026
1.075146900721923
1.0751466910719758
1.0751467030643369
1.0751466910694865
1.0751466915783392
1.0751466910694099
1.0751466911024481
1.0751466910694099
1.0751466915783392
1.0751466910694865
1.0751467030643369
1.0751466910719758
1.075146900721923
1.0751466911327026
1.0751492923226107
1.0751466921806745
1.0751683939227448
1.0751467026885024
1.0752611364400475
1.075146737379699
1.0755146011048522
1.0751466019363407
1.0758581800212434
1.1319058335211396
1.1324111678097035
1.1319060765797746
1.1320629106266598
1.1319059988727733
1.1319354254318685
1.131905977955963
1.1319094342948235
1.1319059759583057
1.1319062470319434
1.1319059758460939
1.1319059908625935
1.1319059758416212
1.1319059764562369
1.1319059758414836
1.1319059758798766
1.1319059758414836
1.1319059764562369
1.1319059758416212
1.1319059908625935
1.1319059758460939
1.1319062470319434
1.1319059759583057
1.1319094342948235
1.131905977955963
1.1319354254318685
1.1319059988727733
1.1320629106266598
1.1319060765797746
1.1324111678097035
1.1319058335211396
1.1329642401978293
1.2211116323552111
1.2217696396191433
1.2211120162402438
1.2213148919565067
1.2211118641012044
1.2211490282932895
1.2211118276502315
1.2211160265632752
1.221111824366701
1.2211121379818102
1.2211118241909988
1.2211118406246149
1.221111824184326
1.2211118248175123
1.2211118241841323
1.221111824221248
1.2211118241841323
1.2211118248175123
1.221111824184326
1.2211118406246149
1.2211118241909988
1.2211121379818102
1.221111824366701
1.2211160265632752
1.2211118276502315
1.2211490282932895
1.2211118641012044
1.2213148919565067
1.2211120162402438
1.2217696396191433
1.2211116323552111
1.2227001388253087
1.3463177371236614
1.3471262225327698
1.3463182611823399
1.3465641584436183
1.3463180100444088
1.3463610402943935
1.346317956643418
1.3463225102453005
1.3463179522199378
1.3463182672780316
1.3463179520007982
1.346317967196013
1.346317951993097
1.3463179525298048
1.3463179519928918
1.3463179520216664
1.3463179519928918
1.3463179525298048
1.346317951993097
1.346317967196013
1.3463179520007982
1.3463182672780316
1.3463179522199378
1.3463225102453005
1.346317956643418
1.3463610402943935
1.3463180100444088
1.3465641584436183
1.3463182611823399
1.3471262225327698
1.3463177371236614
1.3486451353339457
1.4968649537358623
1.4977965135086519
1.4968655533298805
1.4971378878996495
1.4968652308724779
1.4969093629538808
1.4968651704592839
1.4968694297502354
1.496865165972882
1.496865433043862
1.4968651657719279
1.4968651774137207
1.4968651657655241
1.4968651661367365
1.4968651657653693
1.4968651657833401
1.4968651657653693
1.4968651661367365
1.4968651657655241
1.4968651774137207
1.4968651657719279
1.496865433043862
1.496865165972882
1.4968694297502354
1.4968651704592839
1.4969093629538808
1.4968652308724779
1.4971378878996495
1.4968655533298805
1.4977965135086519
1.4968649537358623
1.5
1.6477093881943008
1.6486852480068275
1.6477099364585643
1.64797440422296
1.647709640744464
1.6477484634429482
1.6477095914627458
1.6477129717476844
1.6477095881846711
1.6477097794524911
1.6477095880516626