# vtk DataFile Version 3.0
Euler density step 54
ASCII
DATASET STRUCTURED_POINTS
DIMENSIONS 32 32 32
ORIGIN 0 0 0
SPACING 0.3125 0.3125 0.3125
POINT_DATA 32768
SCALARS density double 1
LOOKUP_TABLE default
1.0004046655518004
1.0003857058358099
1.0004046658241037
1.0004043364892756
1.0004046657512735
1.0004046628968648
1.0004046657508816
1.0004046657367238
1.0004046657508801
1.0004046657508363
1.0004046657508801
1.0004046657508801
1.0004046657508801
1.0004046657508801
1.0004046657508801
1.0004046657508801
1.0004046657508801
1.0004046657508801
1.0004046657508801
1.0004046657508801
1.0004046657508801
1.0004046657508363
1.0004046657508801
1.0004046657367238
1.0004046657508816
1.0004046628968648
1.0004046657512735
1.0004043364892756
1.0004046658241037
1.0003857058358099
1.0004046655518004
1.0000453978687025
1.0000848687139887
1.0000848715987185
1.0000848687139976
1.0000848687992463
1.0000848687140027
1.000084868714938
1.0000848687140027
1.0000848687140083
1.0000848687140027
1.0000848687140027
1.0000848687140027
1.0000848687140027
1.0000848687140027
1.0000848687140027
1.0000848687140027
1.0000848687140027
1.0000848687140027
1.0000848687140027
1.0000848687140027
1.0000848687140027
1.0000848687140027
1.0000848687140027
1.0000848687140027
1.0000848687140083
1.0000848687140027
1.000084868714938
1.0000848687140027
1.0000848687992463
1.0000848687139976
1.0000848715987185
1.0000848687139887
1.0000848110417238
1.0001776751421365
1.0001770249924868
1.0001776751623999
1.0001776667584876
1.0001776751621152
1.0001776751067739
1.000177675162113
1.0001776751619005
1.000177675162113
1.0001776751621128
1.000177675162113
1.000177675162113
1.000177675162113
1.000177675162113
1.000177675162113
1.000177675162113
1.000177675162113
1.000177675162113
1.000177675162113
1.000177675162113
1.000177675162113
1.0001776751621128
1.000177675162113
1.0001776751619005
1.000177675162113
1.0001776751067739
1.0001776751621152
1.0001776667584876
1.0001776751623999
1.0001770249924868
1.0001776751421365
1.0001584362191025
1.0002958756954896
1.0002958847784891
1.0002958756954885
1.0002958758625242
1.0002958756954885
1.0002958756970155
1.0002958756954885
1.0002958756954958
1.0002958756954885
1.0002958756954885
1.0002958756954885
1.0002958756954885
1.0002958756954885
1.0002958756954885
1.0002958756954885
1.0002958756954885
1.0002958756954885
1.0002958756954885
1.0002958756954885
1.0002958756954885
1.0002958756954885
1.0002958756954885
1.0002958756954885
1.0002958756954958
1.0002958756954885
1.0002958756970155
1.0002958756954885
1.0002958758625242
1.0002958756954885
1.0002958847784891
1.0002958756954896
1.0002959571135133
1.000552959420379
1.0005529670320141
1.0005529594204843
1.0005529596307605
1.0005529594204838
1.000552959422732
1.0005529594204838
1.000552959420496
1.0005529594204838
1.0005529594204838
1.0005529594204838
1.0005529594204838
1.0005529594204838
1.0005529594204838
1.0005529594204838
1.0005529594204838
1.0005529594204838
1.0005529594204838
1.0005529594204838
1.0005529594204838
1.0005529594204838
1.0005529594204838
1.0005529594204838
1.000552959420496
1.0005529594204838
1.000552959422732
1.0005529594204838
1.0005529596307605
1.0005529594204843
1.0005529670320141
1.000552959420379
1.0005527786369237
1.0010319419007823
1.0010319712856985
1.0010319419007838
1.0010319424351355
1.0010319419007836
1.0010319419056304
1.0010319419007836
1.0010319419008082
1.0010319419007836
1.0010319419007836
1.0010319419007836
1.0010319419007836
1.0010319419007836
1.0010319419007836
1.0010319419007836
1.0010319419007836
1.0010319419007836
1.0010319419007836
1.0010319419007836
1.0010319419007836
1.0010319419007836
1.0010319419007836
1.0010319419007836
1.0010319419008082
1.0010319419007836
1.0010319419056304
1.0010319419007836
1.0010319424351355
1.0010319419007838
1.0010319712856985
1.0010319419007823
1.001032231036755
1.0019261953736311
1.0019262493614194
1.0019261953736351
1.0019261963533197
1.0019261953736345
1.0019261953825027
1.0019261953736345
1.0019261953736804
1.0019261953736345
1.0019261953736345
1.0019261953736345
1.0019261953736345
1.0019261953736345
1.0019261953736345
1.0019261953736345
1.0019261953736345
1.0019261953736345
1.0019261953736345
1.0019261953736345
1.0019261953736345
1.0019261953736345
1.0019261953736345
1.0019261953736345
1.0019261953736804
1.0019261953736345
1.0019261953825027
1.0019261953736345
1.0019261963533197
1.0019261953736351
1.0019262493614194
1.0019261953736311
1.0019267346633276
1.0035925854072776
1.0035926852291701
1.0035925854072874
1.0035925872129499
1.003592585407286
1.0035925854235852
1.003592585407286
1.0035925854073697
1.003592585407286
1.0035925854072862
1.003592585407286
1.003592585407286
1.003592585407286
1.003592585407286
1.003592585407286
1.003592585407286
1.003592585407286
1.003592585407286
1.003592585407286
1.003592585407286
1.003592585407286
1.0035925854072862
1.003592585407286
1.0035925854073697
1.003592585407286
1.0035925854235852
1.003592585407286
1.0035925872129499
1.0035925854072874
1.0035926852291701
1.0035925854072776
1.0035936025814203
1.0066909386523886
1.0066911230001006
1.0066909386524234
1.0066909419756436
1.0066909386524163
1.0066909386823142
1.0066909386524161
1.0066909386525702
1.0066909386524161
1.0066909386524168
1.0066909386524161
1.0066909386524161
1.0066909386524161
1.0066909386524161
1.0066909386524161
1.0066909386524161
1.0066909386524161
1.0066909386524161
1.0066909386524161
1.0066909386524161
1.0066909386524161
1.0066909386524168
1.0066909386524161
1.0066909386525702
1.0066909386524161
1.0066909386823142
1.0066909386524163
1.0066909419756436
1.0066909386524234
1.0066911230001006
1.0066909386523886
1.006692850924285
1.0124280392329912
1.0124283781745473
1.0124280392331031
1.0124280453090191
1.0124280392330787
1.012428039287435
1.0124280392330787
1.0124280392333571
1.0124280392330787
1.0124280392330793
1.0124280392330787
1.0124280392330787
1.0124280392330787
1.0124280392330787
1.0124280392330787
1.0124280392330787
1.0124280392330787
1.0124280392330787
1.0124280392330787
1.0124280392330787
1.0124280392330787
1.0124280392330793
1.0124280392330787
1.0124280392333571
1.0124280392330787
1.012428039287435
1.0124280392330787
1.0124280453090191
1.0124280392331031
1.0124283781745473
1.0124280392329912
1.0124316508531859
1.0229704912381483
1.0229711082639463
1.0229704912384905
1.0229705021910225
1.0229704912384106
1.0229704913354194
1.0229704912384097
1.0229704912389026
1.0229704912384097
1.0229704912384112
1.0229704912384097
1.0229704912384097
1.0229704912384097
1.0229704912384097
1.0229704912384097
1.0229704912384097
1.0229704912384097
1.0229704912384097
1.0229704912384097
1.0229704912384097
1.0229704912384097
1.0229704912384112
1.0229704912384097
1.0229704912389026
1.0229704912384097
1.0229704913354194
1.0229704912384106
1.0229705021910225
1.0229704912384905
1.0229711082639463
1.0229704912381483
1.0229773699100257
1.0420744526428614
1.0420755559523089
1.0420744526438337
1.0420744718901014
1.042074452643581
1.0420744528110477
1.0420744526435795
1.042074452644415
1.0420744526435795
1.0420744526435821
1.0420744526435795
1.0420744526435795
1.0420744526435795
1.0420744526435795
1.0420744526435795
1.0420744526435795
1.0420744526435795
1.0420744526435795
1.0420744526435795
1.0420744526435795
1.0420744526435795
1.0420744526435821
1.0420744526435795
1.042074452644415
1.0420744526435795
1.0420744528110477
1.042074452643581
1.0420744718901014
1.0420744526438337
1.0420755559523089
1.0420744526428614
1.0420877279156189
1.0758321677135259
1.0758340822739325
1.0758321677159841
1.0758322001260141
1.0758321677152438
1.0758321679886944
1.0758321677152396
1.0758321677165603
1.0758321677152396
1.0758321677152436
1.0758321677152396
1.0758321677152396
1.0758321677152396
1.0758321677152396
1.0758321677152396
1.0758321677152396
1.0758321677152396
1.0758321677152396
1.0758321677152396
1.0758321677152396
1.0758321677152396
1.0758321677152436
1.0758321677152396
1.0758321677165603
1.0758321677152396
1.0758321679886944
1.0758321677152438
1.0758322001260141
1.0758321677159841
1.0758340822739325
1.0758321677135259
1.0758581800212434
1.1329130685755258
1.1329162343370442
1.1329130685808984
1.1329131196009194
1.132913068578965
1.1329130689881879
1.1329130685789546
1.1329130685808333
1.1329130685789546
1.1329130685789599
1.1329130685789546
1.1329130685789546
1.1329130685789546
1.1329130685789546
1.1329130685789546
1.1329130685789546
1.1329130685789546
1.1329130685789546
1.1329130685789546
1.1329130685789546
1.1329130685789546
1.1329130685789599
1.1329130685789546
1.1329130685808333
1.1329130685789546
1.1329130689881879
1.132913068578965
1.1329131196009194
1.1329130685808984
1.1329162343370442
1.1329130685755258
1.1329642401978293
1.2226028983963562
1.2226077504576662
1.2226028984061952
1.2226029710519799
1.2226028984019763
1.2226028989421727
1.2226028984019561
1.2226028984042525
1.2226028984019561
1.2226028984019623
1.2226028984019561
1.2226028984019561
1.2226028984019561
1.2226028984019561
1.2226028984019561
1.2226028984019561
1.2226028984019561
1.2226028984019561
1.2226028984019561
1.2226028984019561
1.2226028984019561
1.2226028984019623
1.2226028984019561
1.2226028984042525
1.2226028984019561
1.2226028989421727
1.2226028984019763
1.2226029710519799
1.2226028984061952
1.2226077504576662
1.2226028983963562
1.2227001388253087
1.3484781969198074
1.3484848340882614
1.3484781969343331
1.3484782871859988
1.3484781969272079
1.348478197535369
1.3484781969271762
1.348478196929517
1.3484781969271762
1.3484781969271815
1.3484781969271762
1.3484781969271762
1.3484781969271762
1.3484781969271762
1.3484781969271762
1.3484781969271762
1.3484781969271762
1.3484781969271762
1.3484781969271762
1.3484781969271762
1.3484781969271762
1.3484781969271815
1.3484781969271762
1.348478196929517
1.3484781969271762
1.348478197535369
1.3484781969272079
1.3484782871859988
1.3484781969343331
1.3484848340882614
1.3484781969198074
1.3486451353339457
1.4997587294318984
1.4997665201712855
1.4997587294484127
1.4997588247261038
1.499758729439693
1.4997587300160491
1.4997587294396597
1.4997587294416497
1.4997587294396597
1.4997587294396642
1.4997587294396597
1.4997587294396597
1.4997587294396597
1.4997587294396597
1.4997587294396597
1.4997587294396597
1.4997587294396597
1.4997587294396597
1.4997587294396597
1.4997587294396597
1.4997587294396597
1.4997587294396642
1.4997587294396597
1.4997587294416497
1.4997587294396597
1.4997587300160491
1.499758729439693
1.4997588247261038
1.4997587294484127
1.4997665201712855
1.4997587294318984
1.5
1.6510736494331217
1.6510813137887621
1.651073649447397
1.6510737344571007
1.6510736494398579
1.6510736499057179
1.6510736494398319
1.6510736494412885
1.6510736494398319
1.6510736494398353
1.6510736494398319
1.6510736494398319
1.6510736494398319
1.6510736494398319
1.6510736494398319
1.6510736494398319
1.6510736494398319
1.6510736494398319
1.6510736494398319
1.6510736494398319
1.6510736494398319
1.6510736494398353
1.6510736494398319
1.6510736494412885
1.6510736494398319
1.6510736499057179
1.6510736494398579
1.6510737344571007
1.651073649447397
1.6510813137887621
1.6510736494331217
1.6513548646660543
1.7770362903925334
1.777042632442277
1.7770362904022381
1.7770363555627668
1.7770362903975216
1.7770362907281934
1.7770362903975068
1.7770362903984644
1.7770362903975068
1.7770362903975079
1.7770362903975068
1.7770362903975068
1.7770362903975068
1.7770362903975068
1.7770362903975068
1.7770362903975068
1.7770362903975068
1.7770362903975068
1.7770362903975068
1.7770362903975068
1.7770362903975068
1.7770362903975079
1.7770362903975068
1.7770362903984644
1.7770362903975068
1.7770362907281934
1.7770362903975216
1.7770363555627668
1.7770362904022381
1.777042632442277
1.7770362903925334
1.7772998611746911
1.8668309803010672
1.8668355153704925
1.8668309803064986
1.8668310245055475
1.8668309803042338
1.8668309805170726
1.8668309803042276
1.8668309803048122
1.8668309803042276
1.866830980304228
1.8668309803042276
1.8668309803042276
1.8668309803042276
1.8668309803042276
1.8668309803042276
1.8668309803042276
1.8668309803042276
1.8668309803042276
1.8668309803042276
1.8668309803042276
1.8668309803042276
1.866830980304228
1.8668309803042276
1.8668309803048122
1.8668309803042276
1.8668309805170726
1.8668309803042338
1.8668310245055475
1.8668309803064986
1.8668355153704925
1.8668309803010672
1.8670357598021707
1.9240035927145811
1.9240065019858519
1.9240035927171513
1.9240036201408324
1.9240035927162555
1.9240035928440711
1.9240035927162527
1.9240035927165922
1.9240035927162527
1.9240035927162533
1.9240035927162527
1.9240035927162527
1.9240035927162527
1.9240035927162527
1.9240035927162527
1.9240035927162527
1.9240035927162527
1.9240035927162527
1.9240035927162527
1.9240035927162527
1.9240035927162527
1.9240035927162533
1.9240035927162527
1.9240035927165922
1.9240035927162527
1.9240035928440711
1.9240035927162555
1.9240036201408324
1.9240035927171513
1.9240065019858519
1.9240035927145811
1.9241418199787566
1.9578273862040705
1.957829121183706
1.9578273862051176
1.9578274022366897
1.9578273862048063
1.9578273862781048
1.9578273862048059
1.9578273862049971
1.9578273862048059
1.9578273862048061
1.9578273862048059
1.9578273862048059
1.9578273862048059
1.9578273862048059
1.9578273862048059
1.9578273862048059
1.9578273862048059
1.9578273862048059
1.9578273862048059
1.9578273862048059
1.9578273862048059
1.9578273862048061
1.9578273862048059
1.9578273862049971
1.9578273862048059
1.9578273862781048
1.9578273862048063
1.9578274022366897
1.9578273862051176
1.957829121183706
1.9578273862040705
1.9579122720843811
1.9769734793946059
1.976974468256641
1.9769734793949836
1.9769734884280439
1.9769734793948834
1.976973479435739
1.9769734793948834
1.9769734793949889
1.9769734793948834
1.9769734793948834
1.9769734793948834
1.9769734793948834
1.9769734793948834
1.9769734793948834
1.9769734793948834
1.9769734793948834
1.9769734793948834
1.9769734793948834
1.9769734793948834
1.9769734793948834
1.9769734793948834
1.9769734793948834
1.9769734793948834
1.9769734793949889
1.9769734793948834
1.976973479435739
1.9769734793948834
1.9769734884280439
1.9769734793949836
1.976974468256641
1.9769734793946059
1.9770226300899743
1.9875408611989458
1.9875414102363462
1.9875408611990715
1.9875408661825067
1.9875408611990411
1.9875408612214462
1.9875408611990411
1.9875408611990986
1.9875408611990411
1.9875408611990411
1.9875408611990411
1.9875408611990411
1.9875408611990411
1.9875408611990411
1.9875408611990411
1.9875408611990411
1.9875408611990411
1.9875408611990411
1.9875408611990411
1.9875408611990411
1.9875408611990411
1.9875408611990411
1.9875408611990411
1.9875408611990986
1.9875408611990411
1.9875408612214462
1.9875408611990411
1.9875408661825067
1.9875408611990715
1.9875414102363462
1.9875408611989458
1.9875683491468141
1.9932920778673795
1.9932923785523309
1.993292077867419
1.9932920805874221
1.9932920778674095
1.9932920778796008
1.9932920778674095
1.9932920778674406
1.9932920778674095
1.9932920778674097
1.9932920778674095
1.9932920778674095
1.9932920778674095
1.9932920778674095
1.9932920778674095
1.9932920778674095
1.9932920778674095
1.9932920778674095
1.9932920778674095
1.9932920778674095
1.9932920778674095
1.9932920778674097
1.9932920778674095
1.9932920778674406
1.9932920778674095
1.9932920778796008
1.9932920778674095
1.9932920805874221
1.993292077867419
1.9932923785523309
1.9932920778673795
1.993307149075715
1.9963982242496074
1.9963983880621547
1.996398224249619
1.9963982257290978
1.9963982242496163
1.9963982242562399
1.9963982242496163
1.9963982242496328
1.9963982242496163
1.9963982242496163
1.9963982242496163
1.9963982242496163
1.9963982242496163
1.9963982242496163
1.9963982242496163
1.9963982242496163
1.9963982242496163
1.9963982242496163
1.9963982242496163
1.9963982242496163
1.9963982242496163
1.9963982242496163
1.9963982242496163
1.9963982242496328
1.9963982242496163
1.9963982242562399
1.9963982242496163
1.9963982257290978
1.996398224249619
1.9963983880621547
1.9963982242496074
1.9964063974185799
1.9980689513886436
1.9980690395325138
1.9980689513886551
1.9980689521891803
1.9980689513886536
1.9980689513922483
1.9980689513886536
1.9980689513886631
1.9980689513886536
1.9980689513886536
1.9980689513886536
1.9980689513886536
1.9980689513886536
1.9980689513886536
1.9980689513886536
1.9980689513886536
1.9980689513886536
1.9980689513886536
1.9980689513886536
1.9980689513886536
1.9980689513886536
1.9980689513886536
1.9980689513886536
1.9980689513886631
1.9980689513886536
1.9980689513922483
1.9980689513886536
1.9980689521891803
1.9980689513886551
1.9980690395325138
1.9980689513886436
1.9980732653366724
1.9989654007039559
1.9989654499274687
1.998965400703957
1.9989654011485476
1.9989654007039563
1.9989654007059479
1.9989654007039563
1.9989654007039617
1.9989654007039563
1.9989654007039566
1.9989654007039563
1.9989654007039563
1.9989654007039563
1.9989654007039563
1.9989654007039563
1.9989654007039563
1.9989654007039563
1.9989654007039563
1.9989654007039563
1.9989654007039563
1.9989654007039563
1.9989654007039566
1.9989654007039563
1.9989654007039617
1.9989654007039563
1.9989654007059479
1.9989654007039563
1.9989654011485476
1.998965400703957
1.9989654499274687
1.9989654007039559
1.9989677689632452
1.9994558484441363
1.9994556952279048
1.9994558484466887
1.9994558474667068
1.9994558484466689
1.9994558484435545
1.9994558484466687
1.9994558484466629
1.9994558484466687
1.9994558484466687
1.9994558484466687
1.9994558484466687
1.9994558484466687
1.9994558484466687
1.9994558484466687
1.9994558484466687
1.9994558484466687
1.9994558484466687
1.9994558484466687
1.9994558484466687
1.9994558484466687
1.9994558484466687
1.9994558484466687
1.9994558484466629
1.9994558484466687
1.9994558484435545
1.9994558484466689
1.9994558474667068
1.9994558484466887
1.9994556952279048
1.9994558484441363
1.9994472213630763
1.9997033232060235
1.9997033408067129
1.9997033232060224
1.9997033233675696
1.9997033232060235
1.9997033232067547
1.9997033232060235
1.9997033232060253
1.9997033232060235
1.9997033232060235
1.9997033232060235
1.9997033232060235
1.9997033232060235
1.9997033232060235
1.9997033232060235
1.9997033232060235
1.9997033232060235
1.9997033232060235
1.9997033232060235
1.9997033232060235
1.9997033232060235
1.9997033232060235
1.9997033232060235
1.9997033232060253
1.9997033232060235
1.9997033232067547
1.9997033232060235
1.9997033233675696
1.9997033232060224
1.9997033408067129
1.9997033232060235
1.999704042886487
2.0002342958782515
2.0002244997784211
2.000234295894916
2.0002342053670037
2.0002342958849071
2.000234295474034
2.0002342958848787
2.0002342958838173
2.0002342958848787
2.0002342958848769
2.0002342958848787
2.0002342958848787
2.0002342958848787
2.0002342958848787
2.0002342958848787
2.0002342958848787
2.0002342958848787
2.0002342958848787
2.0002342958848787
2.0002342958848787
2.0002342958848787
2.0002342958848769
2.0002342958848787
2.0002342958838173
2.0002342958848787
2.000234295474034
2.0002342958849071
2.0002342053670037
2.000234295894916
2.0002244997784211
2.0002342958782515
1.9998415637808975
1.9999151889582765
1.9999151889582765
1.9999151889582765
1.9999151889582765
1.9999151889582765
1.9999151889582765
1.9999151889582765
1.9999151889582765
1.9999151889582765
1.9999151889582765
1.9999151889582765
1.9999151889582765
1.9999151889582765
1.9999151889582765
1.9999151889582765
1.9999151889582765
1.9999151889582765
1.9999151889582765
1.9999151889582765
1.9999151889582765
1.9999151889582765
1.9999151889582765
1.9999151889582765
1.9999151889582765
1.9999151889582765
1.9999151889582765
1.9999151889582765
1.9999151889582765
1.9999151889582765
1.9999151889582765
1.9999151889582765
1.9999151889582765
1.0014692899851827
1.001426213636764
1.0014692907257812
1.0014684257904187
1.0014692902928082
1.0014692817013753
1.0014692902899427
1.0014692902412314
1.0014692902899316
1.0014692902897597
1.0014692902899314
1.0014692902899311
1.0014692902899314
1.0014692902899314
1.0014692902899314
1.0014692902899314
1.0014692902899314
1.0014692902899314
1.0014692902899314
1.0014692902899311
1.0014692902899314
1.0014692902897597
1.0014692902899316
1.0014692902412314
1.0014692902899427
1.0014692817013753
1.0014692902928082
1.0014684257904187
1.0014692907257812
1.001426213636764
1.0014692899851827
1.0000453978687025
1.0000854382869628
1.0000854149377276
1.0000854382870659
1.0000854378700912
1.0000854382870186
1.0000854382831832
1.0000854382870179
1.0000854382869973
1.0000854382870179
1.0000854382870179
1.0000854382870179
1.0000854382870179
1.0000854382870179
1.0000854382870179
1.0000854382870179
1.0000854382870179
1.0000854382870179
1.0000854382870179
1.0000854382870179
1.0000854382870179
1.0000854382870179
1.0000854382870179
1.0000854382870179
1.0000854382869973
1.0000854382870179
1.0000854382831832
1.0000854382870186
1.0000854378700912
1.0000854382870659
1.0000854149377276
1.0000854382869628
1.0000848110417238
1.0002021026052108
1.0002003897945355
1.0002021027190162
1.0002020772769165
1.0002021027169015
1.0002021025246028
1.0002021027168821
1.0002021027160328
1.0002021027168819
1.0002021027168797
1.0002021027168819
1.0002021027168817
1.0002021027168819
1.0002021027168819
1.0002021027168819
1.0002021027168819
1.0002021027168819
1.0002021027168819
1.0002021027168819
1.0002021027168817
1.0002021027168819
1.0002021027168797
1.0002021027168819
1.0002021027160328
1.0002021027168821
1.0002021025246028
1.0002021027169015
1.0002020772769165
1.0002021027190162
1.0002003897945355
1.0002021026052108
1.0001584362191025
1.0002955158252749
1.0002955276760119
1.0002955158252902
1.0002955160436202
1.0002955158252897
1.0002955158272733
1.0002955158252897
1.0002955158252995
1.0002955158252897
1.0002955158252897
1.0002955158252897
1.0002955158252897
1.0002955158252897
1.0002955158252897
1.0002955158252897
1.0002955158252897
1.0002955158252897
1.0002955158252897
1.0002955158252897
1.0002955158252897
1.0002955158252897
1.0002955158252897
1.0002955158252897
1.0002955158252995
1.0002955158252897
1.0002955158272733
1.0002955158252897
1.0002955160436202
1.0002955158252902
1.0002955276760119
1.0002955158252749
1.0002959571135133
1.0005527819761573
1.0005527803461578
1.0005527819768925
1.0005527821217721
1.0005527819768871
1.000552781979092
1.0005527819768871
1.0005527819769013
1.0005527819768871
1.0005527819768871
1.0005527819768871
1.0005527819768871
1.0005527819768871
1.0005527819768871
1.0005527819768871
1.0005527819768871
1.0005527819768871
1.0005527819768871
1.0005527819768871
1.0005527819768871
1.0005527819768871
1.0005527819768871
1.0005527819768871
1.0005527819769013
1.0005527819768871
1.000552781979092
1.0005527819768871
1.0005527821217721
1.0005527819768925
1.0005527803461578
1.0005527819761573
1.0005527786369237
1.0010305919443809
1.0010306367978228
1.0010305919443827
1.0010305927573171
1.0010305919443823
1.0010305919517091
1.0010305919443823
1.0010305919444202
1.0010305919443823
1.0010305919443823
1.0010305919443823
1.0010305919443823
1.0010305919443823
1.0010305919443823
1.0010305919443823
1.0010305919443823
1.0010305919443823
1.0010305919443823
1.0010305919443823
1.0010305919443823
1.0010305919443823
1.0010305919443823
1.0010305919443823
1.0010305919444202
1.0010305919443823
1.0010305919517091
1.0010305919443823
1.0010305927573171
1.0010305919443827
1.0010306367978228
1.0010305919443809
1.001032231036755
1.0019236838957817
1.0019237673448589
1.001923683895791
1.0019236854100155
1.0019236838957899
1.0019236839094456
1.0019236838957899
1.0019236838958596
1.0019236838957899
1.0019236838957899
1.0019236838957899
1.0019236838957899
1.0019236838957899
1.0019236838957899
1.0019236838957899
1.0019236838957899
1.0019236838957899
1.0019236838957899
1.0019236838957899
1.0019236838957899
1.0019236838957899
1.0019236838957899
1.0019236838957899
1.0019236838958596
1.0019236838957899
1.0019236839094456
1.0019236838957899
1.0019236854100155
1.001923683895791
1.0019237673448589
1.0019236838957817
1.0019267346633276
1.0035879008191335
1.0035880563676201
1.0035879008191562
1.0035879036356221
1.0035879008191511
1.0035879008445159
1.0035879008191511
1.0035879008192812
1.0035879008191511
1.0035879008191515
1.0035879008191511
1.0035879008191511
1.0035879008191511
1.0035879008191511
1.0035879008191511
1.0035879008191511
1.0035879008191511
1.0035879008191511
1.0035879008191511
1.0035879008191511
1.0035879008191511
1.0035879008191515
1.0035879008191511
1.0035879008192812
1.0035879008191511
1.0035879008445159
1.0035879008191511
1.0035879036356221
1.0035879008191562
1.0035880563676201
1.0035879008191335
1.0035936025814203
1.0066822485666813
1.0066825366220511
1.0066822485667548
1.0066822537701456
1.006682248566737
1.0066822486134865
1.0066822485667368
1.0066822485669762
1.0066822485667368
1.0066822485667377
1.0066822485667368
1.0066822485667368
1.0066822485667368
1.0066822485667368
1.0066822485667368
1.0066822485667368
1.0066822485667368
1.0066822485667368
1.0066822485667368
1.0066822485667368
1.0066822485667368
1.0066822485667377
1.0066822485667368
1.0066822485669762
1.0066822485667368
1.0066822486134865
1.006682248566737
1.0066822537701456
1.0066822485667548
1.0066825366220511
1.0066822485666813
1.006692850924285
1.0124120137450063
1.0124125432576594
1.0124120137452404
1.0124120232653031
1.0124120137451798
1.0124120138302992
1.0124120137451791
1.0124120137456147
1.0124120137451791
1.0124120137451806
1.0124120137451791
1.0124120137451791
1.0124120137451791
1.0124120137451791
1.0124120137451791
1.0124120137451791
1.0124120137451791
1.0124120137451791
1.0124120137451791
1.0124120137451791
1.0124120137451791
1.0124120137451806
1.0124120137451791
1.0124120137456147
1.0124120137451791
1.0124120138302992
1.0124120137451798
1.0124120232653031
1.0124120137452404
1.0124125432576594
1.0124120137450063
1.0124316508531859
1.0229412555761583
1.0229422164460356
1.022941255576854
1.0229412727005636
1.0229412555766553
1.0229412557283764
1.0229412555766539
1.0229412555774227
1.0229412555766539
1.0229412555766568
1.0229412555766539
1.0229412555766539
1.0229412555766539
1.0229412555766539
1.0229412555766539
1.0229412555766539
1.0229412555766539
1.0229412555766539
1.0229412555766539
1.0229412555766539
1.0229412555766539
1.0229412555766568
1.0229412555766539
1.0229412555774227
1.0229412555766539
1.0229412557283764
1.0229412555766553
1.0229412727005636
1.022941255576854
1.0229422164460356
1.0229412555761583
1.0229773699100257
1.0420221376116685
1.0420238432694608
1.0420221376135499
1.042022167527684
1.0420221376129335
1.0420221378736427
1.0420221376129306
1.0420221376142296
1.0420221376129304
1.0420221376129339
1.0420221376129304
1.0420221376129306
1.0420221376129304
1.0420221376129304
1.0420221376129304
1.0420221376129304
1.0420221376129304
1.0420221376129304
1.0420221376129304
1.0420221376129306
1.0420221376129304
1.0420221376129339
1.0420221376129304
1.0420221376142296
1.0420221376129306
1.0420221378736427
1.0420221376129335
1.042022167527684
1.0420221376135499
1.0420238432694608
1.0420221376116685
1.0420877279156189
1.0757416654023033
1.0757445850684486
1.0757416654067449
1.075741715195371
1.0757416654049847
1.0757416658265035
1.0757416654049758
1.0757416654070147
1.0757416654049758
1.0757416654049814
1.0757416654049758
1.0757416654049758
1.0757416654049758
1.0757416654049758
1.0757416654049758
1.0757416654049758
1.0757416654049758
1.0757416654049758
1.0757416654049758
1.0757416654049758
1.0757416654049758
1.0757416654049814
1.0757416654049758
1.0757416654070147
1.0757416654049758
1.0757416658265035
1.0757416654049847
1.075741715195371
1.0757416654067449
1.0757445850684486
1.0757416654023033
1.0758581800212434
1.1327652071106153
1.1327699222322152
1.1327652071195036
1.1327652838533144
1.1327652071151133
1.1327652077341577
1.1327652071150904
1.132765207117941
1.1327652071150904
1.1327652071150986
1.1327652071150904
1.1327652071150904
1.1327652071150904
1.1327652071150904
1.1327652071150904
1.1327652071150904
1.1327652071150904
1.1327652071150904
1.1327652071150904
1.1327652071150904
1.1327652071150904
1.1327652071150986
1.1327652071150904
1.132765207117941
1.1327652071150904
1.1327652077341577
1.1327652071151133
1.1327652838533144
1.1327652071195036
1.1327699222322152
1.1327652071106153
1.1329642401978293
1.2223825048498602
1.2223894621272879
1.2223825048647066
1.222382610283498
1.222382504855817
1.2223825056461741
1.2223825048557739
1.2223825048591543
1.2223825048557739
1.222382504855783
1.2223825048557739
1.2223825048557739
1.2223825048557739
1.2223825048557739
1.2223825048557739
1.2223825048557739
1.2223825048557739
1.2223825048557739
1.2223825048557739
1.2223825048557739
1.2223825048557739
1.222382504855783
1.2223825048557739
1.2223825048591543
1.2223825048557739
1.2223825056461741
1.222382504855817
1.222382610283498
1.2223825048647066
1.2223894621272879
1.2223825048498602
1.2227001388253087
1.3481911509192421
1.3482001564584538
1.348191150939315
1.3481912749702263
1.3481911509258375
1.3481911517695455
1.3481911509257782
1.3481911509290503
1.3481911509257782
1.3481911509257865
1.3481911509257782
1.3481911509257782
1.3481911509257782
1.3481911509257782
1.3481911509257782
1.3481911509257782
1.3481911509257782
1.3481911509257782
1.3481911509257782
1.3481911509257782
1.3481911509257782
1.3481911509257865
1.3481911509257782
1.3481911509290503
1.3481911509257782
1.3481911517695455
1.3481911509258375
1.3481912749702263
1.348191150939315
1.3482001564584538
1.3481911509192421
1.3486451353339457
1.4994446033146127
1.499454472505793
1.4994446033356206
1.4994447254040193
1.499444603321167
1.4994446040658236
1.4994446033211106
1.4994446033236986
1.4994446033211106
1.4994446033211164
1.4994446033211106
1.4994446033211106
1.4994446033211106
1.4994446033211106
1.4994446033211106
1.4994446033211106
1.4994446033211106
1.4994446033211106
1.4994446033211106
1.4994446033211106
1.4994446033211106
1.4994446033211164
1.4994446033211106
1.4994446033236986
1.4994446033211106
1.4994446040658236
1.499444603321167
1.4994447254040193
1.4994446033356206
1.499454472505793
1.4994446033146127
1.5
1.6507897880412856
1.6507988423892741
1.650789788058298
1.6507898893562643
1.6507897880473428
1.6507897886058001
1.6507897880473041