# vtk DataFile Version 3.0
Euler density step 290
ASCII
DATASET STRUCTURED_POINTS
DIMENSIONS 32 32 32
ORIGIN 0 0 0
SPACING 0.3125 0.3125 0.3125
POINT_DATA 32768
SCALARS density double 1
LOOKUP_TABLE default
1.0056603343226562
1.0020006964619841
1.0056696699115337
1.0039703461209699
1.0056687380599258
1.0051412822039565
1.0056672702037313
1.0055624596064692
1.005666943932821
1.0056530620584336
1.0056669096110964
1.005665619821436
1.005666907382875
1.0056668194119871
1.0056669072837174
1.0056668982282972
1.0056669072837174
1.0056668194119871
1.005666907382875
1.005665619821436
1.0056669096110964
1.0056530620584336
1.005666943932821
1.0055624596064692
1.0056672702037313
1.0051412822039565
1.0056687380599258
1.0039703461209699
1.0056696699115337
1.0020006964619841
1.0056603343226562
1.0000453978687025
1.0000814921541459
1.0000859070119392
1.000081478321152
1.0000836957905437
1.0000814771685038
1.0000822360004118
1.0000814786761252
1.0000816475528365
1.0000814791146095
1.0000815040600362
1.000081479167946
1.0000814817302603
1.0000814791716208
1.0000814793633905
1.000081479171776
1.0000814791933053
1.000081479171776
1.0000814793633905
1.0000814791716208
1.0000814817302603
1.000081479167946
1.0000815040600362
1.0000814791146095
1.0000816475528365
1.0000814786761252
1.0000822360004118
1.0000814771685038
1.0000836957905437
1.000081478321152
1.0000859070119392
1.0000814921541459
1.0000848110417238
1.0048510283180907
1.0021196066778151
1.0048551397270917
1.0037031324022849
1.00485516561699
1.0045472896635974
1.0048547461768631
1.0048021979604647
1.0048546613746137
1.0048486200065621
1.0048546535618266
1.0048541608904777
1.0048546531205602
1.0048546233694247
1.0048546531040856
1.0048546503713496
1.0048546531040856
1.0048546233694247
1.0048546531205602
1.0048541608904777
1.0048546535618266
1.0048486200065621
1.0048546613746137
1.0048021979604647
1.0048547461768631
1.0045472896635974
1.00485516561699
1.0037031324022849
1.0048551397270917
1.0021196066778151
1.0048510283180907
1.0001584362191025
1.0002826475336548
1.0002905657006236
1.0002826491414716
1.000285935358062
1.0002826483608644
1.0002835801881131
1.0002826483560514
1.0002828231132064
1.0002826483902434
1.0002826707217172
1.0002826483948197
1.0002826504284692
1.0002826483950689
1.0002826485328706
1.0002826483950724
1.0002826484093563
1.0002826483950724
1.0002826485328706
1.0002826483950689
1.0002826504284692
1.0002826483948197
1.0002826707217172
1.0002826483902434
1.0002828231132064
1.0002826483560514
1.0002835801881131
1.0002826483608644
1.000285935358062
1.0002826491414716
1.0002905657006236
1.0002826475336548
1.0002959571135133
1.0029707937342727
1.0016979642520594
1.0029717974351366
1.0025271082927949
1.0029718798892924
1.002874611707391
1.0029718323000862
1.0029580049693538
1.0029718230693621
1.0029704735170351
1.0029718223056512
1.0029717274798808
1.0029718222687765
1.0029718172858331
1.0029718222677686
1.0029718218667234
1.0029718222677686
1.0029718172858331
1.0029718222687765
1.0029717274798808
1.0029718223056512
1.0029704735170351
1.0029718230693621
1.0029580049693538
1.0029718323000862
1.002874611707391
1.0029718798892924
1.0025271082927949
1.0029717974351366
1.0016979642520594
1.0029707937342727
1.0005527786369237
1.000964432788634
1.0010011256876616
1.0009644348693272
1.0009775794373981
1.0009644348811568
1.0009675799912894
1.000964434807013
1.0009649454755538
1.0009644347960955
1.0009644933136794
1.0009644347951885
1.0009644397215918
1.0009644347951261
1.0009644351112266
1.0009644347951225
1.0009644348267503
1.0009644347951225
1.0009644351112266
1.0009644347951261
1.0009644397215918
1.0009644347951885
1.0009644933136794
1.0009644347960955
1.0009649454755538
1.000964434807013
1.0009675799912894
1.0009644348811568
1.0009775794373981
1.0009644348693272
1.0010011256876616
1.000964432788634
1.001032231036755
1.0025763094623985
1.0022865232922213
1.0025764530189154
1.0024968646357826
1.0025764707324982
1.0025632954548898
1.002576468325133
1.0025751104783738
1.0025764677857802
1.0025763805780914
1.0025764677448721
1.002576464711644
1.0025764677433577
1.00257646775557
1.00257646774335
1.0025764677599578
1.00257646774335
1.00257646775557
1.0025764677433577
1.002576464711644
1.0025764677448721
1.0025763805780914
1.0025764677857802
1.0025751104783738
1.002576468325133
1.0025632954548898
1.0025764707324982
1.0024968646357826
1.0025764530189154
1.0022865232922213
1.0025763094623985
1.0019267346633276
1.0033868487456357
1.0035006202312162
1.0033868576741332
1.0034277674031811
1.003386858310231
1.0033966445929179
1.0033868578929834
1.0033884459726301
1.0033868578106728
1.0033870398036058
1.0033868578033922
1.0033868731338471
1.0033868578029781
1.0033868587874064
1.0033868578029597
1.0033868579015217
1.0033868578029597
1.0033868587874064
1.0033868578029781
1.0033868731338471
1.0033868578033922
1.0033870398036058
1.0033868578106728
1.0033884459726301
1.0033868578929834
1.0033966445929179
1.003386858310231
1.0034277674031811
1.0033868576741332
1.0035006202312162
1.0033868487456357
1.0035936025814203
1.0065106843276301
1.006636304107694
1.006510717746685
1.0065638422368546
1.0065107208252027
1.0065249049908191
1.0065107196636112
1.0065131825228744
1.0065107194209162
1.0065110136266564
1.00651071939954
1.0065107448326487
1.0065107193983591
1.0065107210585738
1.0065107193983123
1.0065107195662724
1.0065107193983123
1.0065107210585738
1.0065107193983591
1.0065107448326487
1.00651071939954
1.0065110136266564
1.0065107194209162
1.0065131825228744
1.0065107196636112
1.0065249049908191
1.0065107208252027
1.0065638422368546
1.006510717746685
1.006636304107694
1.0065106843276301
1.006692850924285
1.011918767631881
1.0122138249257107
1.0119188198409059
1.0120281867008993
1.0119188216974471
1.011945684422447
1.0119188183595931
1.0119232630629547
1.011918817727435
1.0119193339607049
1.0119188176713123
1.0119188615447665
1.0119188176680616
1.0119188205010912
1.0119188176679208
1.0119188179524536
1.0119188176679208
1.0119188205010912
1.0119188176680616
1.0119188615447665
1.0119188176713123
1.0119193339607049
1.011918817727435
1.0119232630629547
1.0119188183595931
1.011945684422447
1.0119188216974471
1.0120281867008993
1.0119188198409059
1.0122138249257107
1.011918767631881
1.0124316508531859
1.0222371213841475
1.0226794205405367
1.0222372377970463
1.0224047825703446
1.0222372388566019
1.0222790905188117
1.0222372302405622
1.0222442300456667
1.0222372286475334
1.0222380466921288
1.0222372285062375
1.0222372982403605
1.0222372284980008
1.0222372330046743
1.0222372284976438
1.0222372289499506
1.0222372284976438
1.0222372330046743
1.0222372284980008
1.0222372982403605
1.0222372285062375
1.0222380466921288
1.0222372286475334
1.0222442300456667
1.0222372302405622
1.0222790905188117
1.0222372388566019
1.0224047825703446
1.0222372377970463
1.0226794205405367
1.0222371213841475
1.0229773699100257
1.0410038093341611
1.0416635429239081
1.0410040531755784
1.0412550341877322
1.0410040465799864
1.0410670617716844
1.0410040257345043
1.0410145926692433
1.0410040220062664
1.0410052566920385
1.041004021677846
1.0410041266663284
1.041004021658662
1.0410040284146309
1.0410040216578218
1.0410040223320898
1.0410040216578218
1.0410040284146309
1.041004021658662
1.0410041266663284
1.041004021677846
1.0410052566920385
1.0410040220062664
1.0410145926692433
1.0410040257345043
1.0410670617716844
1.0410040465799864
1.0412550341877322
1.0410040531755784
1.0416635429239081
1.0410038093341611
1.0420877279156189
1.0743578416690758
1.0752938855719432
1.0743583256155982
1.07471646335914
1.0743582915338583
1.0744485225638736
1.0743582449379101
1.0743733496867243
1.0743582369317097
1.074359991071516
1.0743582362360722
1.0743583840053559
1.0743582361956028
1.0743582455931564
1.0743582361938282
1.0743582371192364
1.0743582361938282
1.0743582455931564
1.0743582361956028
1.0743583840053559
1.0743582362360722
1.074359991071516
1.0743582369317097
1.0743733496867243
1.0743582449379101
1.0744485225638736
1.0743582915338583
1.07471646335914
1.0743583256155982
1.0752938855719432
1.0743578416690758
1.0758581800212434
1.1309148441378272
1.1322033823015842
1.1309157477737359
1.1314081632461972
1.1309156367495743
1.1310391237744128
1.1309155406856937
1.1309359789183575
1.1309155250139975
1.1309178588221145
1.1309155236856145
1.1309157162170771
1.1309155236094381
1.130915535563114
1.1309155236061281
1.1309155247528835
1.1309155236061281
1.130915535563114
1.1309155236094381
1.1309157162170771
1.1309155236856145
1.1309178588221145
1.1309155250139975
1.1309359789183575
1.1309155406856937
1.1310391237744128
1.1309156367495743
1.1314081632461972
1.1309157477737359
1.1322033823015842
1.1309148441378272
1.1329642401978293
1.219905983216943
1.2216183776848133
1.2199075403344615
1.2205584626804979
1.21990725304678
1.2200683882159844
1.2199070728419874
1.2199331403763125
1.2199070453015084
1.2199099325046268
1.2199070430557695
1.2199072727604698
1.2199070429305114
1.2199070566203873
1.2199070429251864
1.2199070441816389
1.2199070429251864
1.2199070566203873
1.2199070429305114
1.2199072727604698
1.2199070430557695
1.2199099325046268
1.2199070453015084
1.2199331403763125
1.2199070728419874
1.2200683882159844
1.21990725304678
1.2205584626804979
1.2199075403344615
1.2216183776848133
1.219905983216943
1.2227001388253087
1.3448306372394876
1.3470010279079971
1.3448330407404032
1.3456538995752843
1.3448324243080125
1.3450316260179165
1.3448321225366784
1.344863239241495
1.3448320798557423
1.344835369804682
1.3448320765614143
1.3448323242997888
1.3448320763860107
1.3448320902666202
1.3448320763788806
1.3448320775710216
1.3448320763788806
1.3448320902666202
1.3448320763860107
1.3448323242997888
1.3448320765614143
1.344835369804682
1.3448320798557423
1.344863239241495
1.3448321225366784
1.3450316260179165
1.3448324243080125
1.3456538995752843
1.3448330407404032
1.3470010279079971
1.3448306372394876
1.3486451353339457
1.4949206120514682
1.4975094329646714
1.4949238727307304
1.4958997043653643
1.4949227906066589
1.4951527291435076
1.4949223564296894
1.4949565067805195
1.4949223005689261
1.4949256860914997
1.4949222965864093
1.4949225334292675
1.4949222963894948
1.4949223086381553
1.494922296382063
1.4949222973493537
1.494922296382063
1.4949223086381553
1.4949222963894948
1.4949225334292675
1.4949222965864093
1.4949256860914997
1.4949223005689261
1.4949565067805195
1.4949223564296894
1.4951527291435076
1.4949227906066589
1.4958997043653643
1.4949238727307304
1.4975094329646714
1.4949206120514682
1.5
1.6450878503976734
1.6479720499142467
1.6450916056979896
1.6461639702809356
1.6450901552735884
1.6453311617510991
1.645089657665878
1.6451231415605441
1.645089600212011
1.6450926736736957
1.6450895964933061
1.6450897944409402
1.6450895963251835
1.6450896057168229
1.645089596319365
1.6450895969987078
1.645089596319365
1.6450896057168229
1.6450895963251835
1.6450897944409402
1.6450895964933061
1.6450926736736957
1.645089600212011
1.6451231415605441
1.645089657665878
1.6453311617510991
1.6450901552735884
1.6461639702809356
1.6450916056979896
1.6479720499142467
1.6450878503976734
1.6513548646660543
1.770439963814745
1.7734084326276143
1.7704435212575891
1.7715062358061331
1.7704421009933065
1.7706659752883456
1.7704416659252131
1.7704705412314499
1.7704416206033031
1.770444073109509
1.7704416179279767
1.7704417639225951
1.7704416178166722
1.7704416242155143
1.7704416178131126
1.7704416182407581
1.7704416178131126
1.7704416242155143
1.7704416178166722
1.7704417639225951
1.7704416179279767
1.770444073109509
1.7704416206033031
1.7704705412314499
1.7704416659252131
1.7706659752883456
1.7704421009933065
1.7715062358061331
1.7704435212575891
1.7734084326276143
1.770439963814745
1.7772998611746911
1.8604448374612033
1.8632223853629031
1.8604476348790353
1.8613849440995356
1.8604465915169393
1.8606304477160731
1.8604462949970617
1.8604683809280027
1.86044626664154
1.8604480178371374
1.8604462650905786
1.8604463626189969
1.8604462650303166
1.8604462690353889
1.8604462650285087
1.860446265279607
1.8604462650285087
1.8604462690353889
1.8604462650303166
1.8604463626189969
1.8604462650905786
1.8604480178371374
1.86044626664154
1.8604683809280027
1.8604462949970617
1.8606304477160731
1.8604465915169393
1.8613849440995356
1.8604476348790353
1.8632223853629031
1.8604448374612033
1.8670357598021707
1.9185216843989361
1.9208609809745754
1.9185235459474279
1.919262267659378
1.9185229391157723
1.9186584186359634
1.9185227743829798
1.918538083397763
1.9185227596480481
1.9185239076815832
1.9185227588885627
1.9185228195978821
1.9185227588605858
1.9185227612341873
1.9185227588597886
1.918522759001756
1.9185227588597886
1.9185227612341873
1.9185227588605858
1.9185228195978821
1.9185227588885627
1.9185239076815832
1.9185227596480481
1.918538083397763
1.9185227743829798
1.9186584186359634
1.9185229391157723
1.919262267659378
1.9185235459474279
1.9208609809745754
1.9185216843989361
1.9241418199787566
1.9535788889249923
1.9553608612860229
1.9535799543920958
1.9541084006068361
1.9535796609429876
1.9536711542593397
1.9535795831154066
1.953589426484126
1.953579576493534
1.9535802839171441
1.9535795761671022
1.953579612184936
1.9535795761555563
1.9535795775157438
1.9535795761552408
1.9535795762340049
1.9535795761552408
1.9535795775157438
1.9535795761555563
1.953579612184936
1.9535795761671022
1.9535802839171441
1.953579576493534
1.953589426484126
1.9535795831154066
1.9536711542593397
1.9535796609429876
1.9541084006068361
1.9535799543920958
1.9553608612860229
1.9535788889249923
1.9579122720843811
1.9739864647971954
1.9752211930602104
1.9739869983123961
1.9743352149655444
1.9739868758748207
1.9740445405374947
1.9739868435160577
1.9739928241387938
1.973986840858579
1.9739872577208442
1.9739868407317442
1.9739868614051472
1.9739868407273899
1.9739868414901616
1.9739868407272751
1.9739868407705277
1.9739868407272751
1.9739868414901616
1.9739868407273899
1.9739868614051472
1.9739868407317442
1.9739872577208442
1.973986840858579
1.9739928241387938
1.9739868435160577
1.9740445405374947
1.9739868758748207
1.9743352149655444
1.9739869983123961
1.9752211930602104
1.9739864647971954
1.9770226300899743
1.9855406133577074
1.9863498385027225
1.985540852165723
1.9857585685108969
1.9855408061966369
1.9855755309847165
1.9855407939691316
1.9855442936655405
1.9855407929908995
1.9855410315067115
1.9855407929453175
1.9855408045595002
1.9855407929437898
1.9855407933657374
1.9855407929437483
1.9855407929673565
1.9855407929437483
1.9855407933657374
1.9855407929437898
1.9855408045595002
1.9855407929453175
1.9855410315067115
1.9855407929908995
1.9855442936655405
1.9855407939691316
1.9855755309847165
1.9855408061966369
1.9857585685108969
1.985540852165723
1.9863498385027225
1.9855406133577074
1.9875683491468141
1.9923253404121397
1.9927303698789225
1.9923254480830426
1.9924386925778625
1.9923254340692786
1.9923438572163155
1.9923254298337341
1.9923273025693045
1.992325429489169
1.9923255574765442
1.9923254294730861
1.9923254357038633
1.9923254294725488
1.9923254296985098
1.9923254294725354
1.9923254294851456
1.9923254294725354
1.9923254296985098
1.9923254294725488
1.9923254357038633
1.9923254294730861
1.9923255574765442
1.992325429489169
1.9923273025693045
1.9923254298337341
1.9923438572163155
1.9923254340692786
1.9924386925778625
1.9923254480830426
1.9927303698789225
1.9923253404121397
1.993307149075715
1.9956440381666229
1.9959411346671472
1.9956440742870849
1.995719385692486
1.995644069158452
1.9956555327277425
1.9956440677517608
1.9956451837955937
1.9956440676430949
1.9956441417477857
1.9956440676382059
1.9956440711741354
1.9956440676380467
1.9956440677644254
1.995644067638042
1.9956440676450176
1.995644067638042
1.9956440677644254
1.9956440676380467
1.9956440711741354
1.9956440676382059
1.9956441417477857
1.9956440676430949
1.9956451837955937
1.9956440677517608
1.9956555327277425
1.995644069158452
1.995719385692486
1.9956440742870849
1.9959411346671472
1.9956440381666229
1.9964063974185799
1.9991249778773867
1.9987084273602604
1.9991251863242725
1.9990410927412574
1.9991251788704159
1.9991156930307645
1.9991251739647067
1.9991245216971465
1.9991251735144995
1.9991251446129783
1.9991251734916038
1.9991251726577723
1.9991251734908055
1.999125173476537
1.9991251734907849
1.9991251734906859
1.9991251734907849
1.999125173476537
1.9991251734908055
1.9991251726577723
1.9991251734916038
1.9991251446129783
1.9991251735144995
1.9991245216971465
1.9991251739647067
1.9991156930307645
1.9991251788704159
1.9990410927412574
1.9991251863242725
1.9987084273602604
1.9991249778773867
1.9980732653366724
1.9987138276031113
1.9988162980682143
1.9987138299480096
1.9987399320169708
1.9987138299433549
1.9987178046469689
1.9987138300268474
1.9987142156859852
1.9987138300412419
1.9987138555048434
1.9987138300422789
1.9987138312490129
1.9987138300423228
1.9987138300851384
1.9987138300423242
1.9987138300446696
1.9987138300423242
1.9987138300851384
1.9987138300423228
1.9987138312490129
1.9987138300422789
1.9987138555048434
1.9987138300412419
1.9987142156859852
1.9987138300268474
1.9987178046469689
1.9987138299433549
1.9987399320169708
1.9987138299480096
1.9988162980682143
1.9987138276031113
1.9989677689632452
2.0034581384760002
2.0015300442488444
2.0034596666213367
2.0029285161318882
2.0034593904116833
2.0033767225681376
2.003459307557844
2.0034513720803737
2.0034593004904497
2.0034587910475099
2.0034593001397885
2.0034592768870025
2.0034593001273953
2.0034592993371145
2.0034593001270622
2.003459300085721
2.0034593001270622
2.0034592993371145
2.0034593001273953
2.0034592768870025
2.0034593001397885
2.0034587910475099
2.0034593004904497
2.0034513720803737
2.003459307557844
2.0033767225681376
2.0034593904116833
2.0029285161318882
2.0034596666213367
2.0015300442488444
2.0034581384760002
1.9994472213630763
1.9996422385858843
1.9996761566910202
1.9996422289300864
1.9996532910790126
1.9996422330409702
1.9996443135322159
1.9996422345761944
1.9996424729294882
1.9996422347538378
1.9996422526802704
1.9996422347650429
1.9996422357074073
1.9996422347655127
1.9996422348018832
1.9996422347655274
1.9996422347676626
1.9996422347655274
1.9996422348018832
1.9996422347655127
1.9996422357074073
1.9996422347650429
1.9996422526802704
1.9996422347538378
1.9996424729294882
1.9996422345761944
1.9996443135322159
1.9996422330409702
1.9996532910790126
1.9996422289300864
1.9996761566910202
1.9996422385858843
1.999704042886487
2.0061630914832529
2.0029063230219037
2.0061679661907852
2.0050530782597913
2.0061656831493027
2.0059506437050283
2.0061651218700542
2.0061402474171004
2.0061650715138919
2.0061631943085079
2.0061650688911699
2.0061649700830073
2.0061650687943926
2.0061650649782821
2.0061650687916588
2.0061650685675123
2.0061650687916588
2.0061650649782821
2.0061650687943926
2.0061649700830073
2.0061650688911699
2.0061631943085079
2.0061650715138919
2.0061402474171004
2.0061651218700542
2.0059506437050283
2.0061656831493027
2.0050530782597913
2.0061679661907852
2.0029063230219037
2.0061630914832529
1.9998415637808975
1.9999151889582765
1.9999151889582765
1.9999151889582765
1.9999151889582765
1.9999151889582765
1.9999151889582765
1.9999151889582765
1.9999151889582765
1.9999151889582765
1.9999151889582765
1.9999151889582765
1.9999151889582765
1.9999151889582765
1.9999151889582765
1.9999151889582765
1.9999151889582765
1.9999151889582765
1.9999151889582765
1.9999151889582765
1.9999151889582765
1.9999151889582765
1.9999151889582765
1.9999151889582765
1.9999151889582765
1.9999151889582765
1.9999151889582765
1.9999151889582765
1.9999151889582765
1.9999151889582765
1.9999151889582765
1.9999151889582765
1.9999151889582765
1.0044170852931751
1.0023574246382647
1.0044264715508451
1.003239713435468
1.0044248063255734
1.0039462684871494
1.0044229070939557
1.0043034312313417
1.0044223777370913
1.0044031213176159
1.0044223052671644
1.0044201713459044
1.0044222990278142
1.0044221271484248
1.0044222986425377
1.0044222778738339
1.0044222986425377
1.0044221271484248
1.0044222990278142
1.0044201713459044
1.0044223052671644
1.0044031213176159
1.0044223777370913
1.0043034312313417
1.0044229070939557
1.0039462684871494
1.0044248063255734
1.003239713435468
1.0044264715508451
1.0023574246382647
1.0044170852931751
1.0000453978687025
1.0000821353726801
1.000085009404609
1.0000821223771452
1.0000833301228369
1.0000821205547334
1.0000824981135308
1.000082122073422
1.0000822205916433
1.0000821226548269
1.0000821413528591
1.0000821227500336
1.0000821252153278
1.0000821227593957
1.0000821229913495
1.0000821227600329
1.0000821227919803
1.0000821227600329
1.0000821229913495
1.0000821227593957
1.0000821252153278
1.0000821227500336
1.0000821413528591
1.0000821226548269
1.0000822205916433
1.000082122073422
1.0000824981135308
1.0000821205547334
1.0000833301228369
1.0000821223771452
1.000085009404609
1.0000821353726801
1.0000848110417238
1.0027920719888199
1.0010328300625877
1.0027963965176152
1.0018411622428538
1.0027963821876436
1.0024696486796913
1.0027957417857192
1.0027267746846187
1.0027955724064348
1.0027860097192272
1.0027955515804003
1.0027946243622097
1.0027955499474404
1.0027954837333271
1.0027955498542576
1.0027955426731394
1.0027955498542576
1.0027954837333271
1.0027955499474404
1.0027946243622097
1.0027955515804003
1.0027860097192272
1.0027955724064348
1.0027267746846187
1.0027957417857192
1.0024696486796913
1.0027963821876436
1.0018411622428538
1.0027963965176152
1.0010328300625877
1.0027920719888199
1.0001584362191025
1.0002909949835306
1.0002942025312347
1.0002910030541454
1.0002922956989195
1.0002910013610722
1.0002914532119997
1.0002910007117034
1.0002911143359445
1.0002910006583319
1.0002910196390946
1.0002910006597252
1.0002910028277459
1.000291000660313
1.0002910008384716
1.0002910006603698
1.0002910006821548
1.0002910006603698
1.0002910008384716
1.000291000660313
1.0002910028277459
1.0002910006597252
1.0002910196390946
1.0002910006583319
1.0002911143359445
1.0002910007117034
1.0002914532119997
1.0002910013610722
1.0002922956989195
1.0002910030541454
1.0002942025312347
1.0002909949835306
1.0002959571135133
1.0023265449291199
1.0012415018862071
1.0023277450475367
1.0018587815003521
1.0023278460024803
1.0022016488193244
1.0023277472511807
1.0023060754277398
1.0023277224277052
1.0023251994756261
1.0023277195965725
1.0023275093001232
1.0023277193881102
1.0023277062578555
1.0023277193769125
1.0023277181139583
1.0023277193769125
1.0023277062578555
1.0023277193881102
1.0023275093001232
1.0023277195965725
1.0023251994756261
1.0023277224277052
1.0023060754277398
1.0023277472511807
1.0022016488193244
1.0023278460024803
1.0018587815003521
1.0023277450475367
1.0012415018862071
1.0023265449291199
1.0005527786369237
1.0009823039009289
1.0010119098914165
1.0009823084800458
1.0009943276173947
1.0009823084633847
1.0009856401962876
1.0009823082179174
1.0009829321047825
1.0009823081761817
1.0009823895996903
1.0009823081727263
1.000982315879051
1.0009823081725493
1.0009823087222611
1.000982308172546
1.0009823082330307
1.000982308172546
1.0009823087222611
1.0009823081725493
1.000982315879051
1.0009823081727263
1.0009823895996903
1.0009823081761817
1.0009829321047825
1.0009823082179174
1.0009856401962876
1.0009823084633847
1.0009943276173947
1.0009823084800458
1.0010119098914165
1.0009823039009289
1.001032231036755
1.0025741031712319
1.0022408335045239
1.0025743128755913
1.0024624596485516
1.0025743403070118
1.0025512776672405
1.0025743324663541
1.0025712907247502
1.002574330346091
1.0025740611777136
1.002574330108597
1.0025743136409095
1.0025743300917145
1.0025743293964349
1.0025743300908507
1.0025743300536467
1.0025743300908507
1.0025743293964349
1.0025743300917145
1.0025743136409095
1.002574330108597
1.0025740611777136
1.002574330346091
1.0025712907247502
1.0025743324663541
1.0025512776672405
1.0025743403070118
1.0024624596485516
1.0025743128755913
1.0022408335045239
1.0025741031712319
1.0019267346633276
1.0034391682164872
1.0035333442304477
1.0034391794189932
1.0034778487405973
1.00343917999413
1.0034498763288671
1.0034391792528903
1.0034411687503559
1.0034391790855346
1.0034394370583046
1.0034391790678225
1.003439203362716
1.0034391790665969
1.0034391807935727
1.0034391790665336
1.0034391792561188
1.0034391790665336
1.0034391807935727
1.0034391790665969
1.003439203362716
1.0034391790678225
1.0034394370583046
1.0034391790855346
1.0034411687503559
1.0034391792528903
1.0034498763288671
1.00343917999413
1.0034778487405973
1.0034391794189932
1.0035333442304477
1.0034391682164872
1.0035936025814203
1.0066368380082955
1.0067029729312349
1.0066368845617957
1.0066755452348926
1.0066368890095891
1.006650147931492
1.0066368868453102
1.0066396732889842
1.0066368863028883
1.0066372743871759
1.0066368862434127
1.006636924422782
1.0066368862392425
1.0066368890294415
1.0066368862390274
1.0066368865508633
1.0066368862390274
1.0066368890294415
1.0066368862392425
1.006636924422782
1.0066368862434127
1.0066372743871759
1.0066368863028883
1.0066396732889842
1.0066368868453102
1.006650147931492
1.0066368890095891
1.0066755452348926
1.0066368845617957
1.0067029729312349
1.0066368380082955
1.006692850924285
1.0120908143728435
1.0123127762621065
1.0120908702171867
1.0121863099278956
1.0120908703895946
1.0121183951198742
1.0120908653282528
1.0120961419748291
1.0120908642179078
1.0120915625996334
1.012090864099749
1.012090930766024
1.0120908640914925
1.0120908688715216
1.0120908640910649
1.0120908646185125
1.0120908640910649
1.0120908688715216
1.0120908640914925
1.012090930766024
1.012090864099749
1.0120915625996334
1.0120908642179078
1.0120961419748291
1.0120908653282528
1.0121183951198742
1.0120908703895946
1.0121863099278956
1.0120908702171867
1.0123127762621065
1.0120908143728435
1.0124316508531859
1.0225374264602864
1.0228430509488158
1.0225375428978711
1.0226744056001771
1.0225375394416658
1.0225783037919476
1.0225375274402533
1.0225455016743947
1.0225375248551083
1.0225385925984252
1.0225375245803596
1.0225376271226101
1.0225375245611474
1.0225375319310073
1.0225375245601485
1.0225375253733016
1.0225375245601485
1.0225375319310073
1.0225375245611474
1.0225376271226101
1.0225375245803596
1.0225385925984252
1.0225375248551083
1.0225455016743947
1.0225375274402533
1.0225783037919476
1.0225375394416658
1.0226744056001771
1.0225375428978711
1.0228430509488158
1.0225374264602864
1.0229773699100257
1.041466684156555
1.0419002730367362
1.0414669079863756
1.0416617414900278
1.0414668905292432
1.0415255046929437
1.0414668640344313
1.0414784078762813
1.041466858501739
1.0414684077337815
1.0414668579186168
1.0414670064838913
1.0414668578780002
1.0414668685093227
1.0414668578758892
1.0414668590414138
1.0414668578758892
1.0414668685093227
1.0414668578780002
1.0414670064838913
1.0414668579186168
1.0414684077337815
1.041466858501739
1.0414784078762813
1.0414668640344313
1.0415255046929437
1.0414668905292432
1.0416617414900278
1.0414669079863756
1.0419002730367362
1.041466684156555
1.0420877279156189
1.0750418913948485
1.0756109166386423
1.0750422971275528
1.0753015270796711
1.0750422434846609
1.075121347610855
1.0750421900111546
1.0750578442853329
1.0750421792352702
1.0750442733866683
1.0750421781153856
1.0750423771683886
1.0750421780381556
1.0750421921003246
1.0750421780341846
1.0750421795520844
1.0750421780341846
1.0750421921003246
1.0750421780381556
1.0750423771683886
1.0750421781153856
1.0750442733866683
1.0750421792352702
1.0750578442853329
1.0750421900111546
1.075121347610855
1.0750422434846609
1.0753015270796711
1.0750422971275528
1.0756109166386423
1.0750418913948485
1.0758581800212434
1.1318439736360302
1.1325653224121037
1.1318446514414164
1.1321751347997684
1.1318445187846313
1.1319458501583815
1.1318444206728224
1.1318643383827669
1.1318444018079501
1.1318470238466074
1.1318443998969812
1.131844643558148
1.1318443997679184
1.1318444165152903
1.1318443997614109
1.131844401514486
1.1318443997614109
1.1318444165152903
1.1318443997679184
1.131844643558148
1.1318443998969812
1.1318470238466074
1.1318444018079501
1.1318643383827669
1.1318444206728224
1.1319458501583815
1.1318445187846313
1.1321751347997684
1.1318446514414164
1.1325653224121037
1.1318439736360302
1.1329642401978293
1.2210695209364804
1.2219421151686476
1.2210705339000938
1.2214721818307377
1.2210702627976835
1.2211928964174945
1.2210701024999313
1.2210937128442676
1.2210700734044619
1.2210730802532506
1.2210700705713786
1.2210703385143331
1.2210700703867723
1.2210700879290419
1.2210700703778075
1.2210700721192769
1.2210700703778075
1.2210700879290419
1.2210700703867723
1.2210703385143331
1.2210700705713786
1.2210730802532506
1.2210700734044619
1.2210937128442676
1.2210701024999313
1.2211928964174945
1.2210702627976835
1.2214721818307377
1.2210705339000938
1.2219421151686476
1.2210695209364804
1.2227001388253087
1.3462161108580428
1.3472117430443813
1.3462174350663729
1.3466814219384973
1.3462169795777212
1.3463566131496545
1.3462167515049108
1.346242562091313
1.3462167129736324
1.3462198163029757
1.3462167094494808
1.3462169677895108
1.3462167092337085
1.3462167249217456
1.3462167092238979
1.3462167106627829
1.3462167092238979
1.3462167249217456
1.3462167092337085
1.3462169677895108
1.3462167094494808
1.3462198163029757
1.3462167129736324
1.346242562091313
1.3462167515049108
1.3463566131496545
1.3462169795777212
1.3466814219384973
1.3462174350663729
1.3472117430443813
1.3462161108580428
1.3486451353339457
1.4966304671886395
1.4977109482876723
1.4966319603489777
1.4971419040056775
1.4966313572300858
1.496778499719724
1.4966310908393081
1.4966564002040843
1.4966310500101454
1.496633843162734
1.4966310466077148
1.496631258645629
1.4966310464173747
1.496631058119317
1.4966310464094688
1.4966310473841151
1.4966310464094688
1.496631058119317
1.4966310464173747
1.496631258645629
1.4966310466077148
1.496633843162734
1.4966310500101454
1.4966564002040843
1.4966310908393081
1.496778499719724
1.4966313572300858
1.4971419040056775
1.4966319603489777
1.4977109482876723
1.4966304671886395
1.5
1.6473338009470646
1.648471563104138
1.647335196944721
1.6478567494280711
1.6473346157704694
1.6474728346572669
1.6473343819368174
1.6473559047217161
1.6473343498241637
1.6473364950427432