# vtk DataFile Version 3.0
Euler density step 538
ASCII
DATASET STRUCTURED_POINTS
DIMENSIONS 32 32 32
ORIGIN 0 0 0
SPACING 0.3125 0.3125 0.3125
POINT_DATA 32768
SCALARS density double 1
LOOKUP_TABLE default
1.008976419291447
1.0018497079664983
1.0090131250034915
1.0037707915879071
1.0090257795376874
1.0052101058905916
1.0090270670089945
1.0063729068750766
1.0090241620132125
1.0074825758601937
1.0090186171855533
1.0083462575913946
1.0090148439801148
1.0087914832142357
1.0090135763728829
1.0089118744060881
1.0090135763728829
1.0087914832142357
1.0090148439801148
1.0083462575913946
1.0090186171855533
1.0074825758601937
1.0090241620132125
1.0063729068750766
1.0090270670089945
1.0052101058905916
1.0090257795376874
1.0037707915879071
1.0090131250034915
1.0018497079664983
1.008976419291447
1.0000453978687025
0.99977783317093616
0.99999722052280926
0.99977765709073063
0.99991501942359551
0.99977759996762205
0.99985123905195916
0.99977760589813858
0.99981055598713564
0.99977762113847946
0.99979003929994037
0.99977763634853989
0.99978163192298053
0.99977764636132049
0.99977876792043407
0.99977765013471998
0.99977812869114158
0.99977765013471998
0.99977876792043407
0.99977764636132049
0.99978163192298053
0.99977763634853989
0.99979003929994037
0.99977762113847946
0.99981055598713564
0.99977760589813858
0.99985123905195916
0.99977759996762205
0.99991501942359551
0.99977765709073063
0.99999722052280926
0.99977783317093616
1.0000848110417238
1.0083329795500211
1.0020226057423534
1.0083548038307582
1.0035932820950291
1.0083665461959856
1.0048739083691147
1.0083700623071756
1.0059488615918124
1.0083686614428959
1.0069986663211101
1.0083643348387084
1.0077927653525067
1.0083614901291087
1.0081820584231487
1.0083605990610152
1.0082829563433269
1.0083605990610152
1.0081820584231487
1.0083614901291087
1.0077927653525067
1.0083643348387084
1.0069986663211101
1.0083686614428959
1.0059488615918124
1.0083700623071756
1.0048739083691147
1.0083665461959856
1.0035932820950291
1.0083548038307582
1.0020226057423534
1.0083329795500211
1.0001584362191025
0.99957821618976084
1.0000963706729715
0.99957825223252739
0.99991430104679269
0.99957826144969153
0.99976627845920085
0.99957825728059568
0.99966526265182221
0.99957825247635723
0.99961085789699078
0.99957825859140204
0.99958809198785947
0.99957826558297436
0.99958071402950111
0.99957826838685671
0.99957919225915814
0.99957826838685671
0.99958071402950111
0.99957826558297436
0.99958809198785947
0.99957825859140204
0.99961085789699078
0.99957825247635723
0.99966526265182221
0.99957825728059568
0.99976627845920085
0.99957826144969153
0.99991430104679269
0.99957825223252739
1.0000963706729715
0.99957821618976084
1.0002959571135133
1.0067506647092335
1.0017843652675267
1.0067613933681767
1.0029226156621911
1.0067694289162836
1.003853226793636
1.0067734990301511
1.0047754956139239
1.0067728664945523
1.0057272772092607
1.0067701403750111
1.0063777962926099
1.0067686104998872
1.0066587782187717
1.0067681953900447
1.0067250124183436
1.0067681953900447
1.0066587782187717
1.0067686104998872
1.0063777962926099
1.0067701403750111
1.0057272772092607
1.0067728664945523
1.0047754956139239
1.0067734990301511
1.003853226793636
1.0067694289162836
1.0029226156621911
1.0067613933681767
1.0017843652675267
1.0067506647092335
1.0005527786369237
0.99971279191102946
1.0006888900073196
0.99971303583248017
1.0003697027014162
0.99971323763213082
1.000099512545626
0.9997132914363781
0.99990084991897721
0.99971326746442224
0.99978522716403551
0.99971324829669195
0.99973472974650368
0.99971324338609358
0.99971837712329026
0.99971324280921647
0.99971508337584702
0.99971324280921647
0.99971837712329026
0.99971324338609358
0.99973472974650368
0.99971324829669195
0.99978522716403551
0.99971326746442224
0.99990084991897721
0.9997132914363781
1.000099512545626
0.99971323763213082
1.0003697027014162
0.99971303583248017
1.0006888900073196
0.99971279191102946
1.001032231036755
1.0062958257456653
1.0027072208371035
1.0063008202788484
1.0034566344192635
1.0063059519548632
1.0041830402645919
1.0063088132713018
1.0050126117234417
1.0063084528033175
1.0057307747325657
1.0063073014816981
1.0061227525741783
1.006306777703782
1.0062625105121754
1.0063066550684656
1.0062913372651152
1.0063066550684656
1.0062625105121754
1.006306777703782
1.0061227525741783
1.0063073014816981
1.0057307747325657
1.0063084528033175
1.0050126117234417
1.0063088132713018
1.0041830402645919
1.0063059519548632
1.0034566344192635
1.0063008202788484
1.0027072208371035
1.0062958257456653
1.0019267346633276
1.001541045464293
1.003102062106622
1.0015416493657461
1.0026327070040977
1.0015422165986414
1.0022220718091759
1.0015424021543038
1.0018953833162116
1.0015423317133767
1.0016861173903915
1.0015422523886421
1.0015872053773867
1.0015422237001008
1.0015533446409033
1.0015422178082987
1.0015462986443409
1.0015422178082987
1.0015533446409033
1.0015422237001008
1.0015872053773867
1.0015422523886421
1.0016861173903915
1.0015423317133767
1.0018953833162116
1.0015424021543038
1.0022220718091759
1.0015422165986414
1.0026327070040977
1.0015416493657461
1.003102062106622
1.001541045464293
1.0035936025814203
1.0091856171854354
1.0072511521521212
1.0091884405150888
1.0077851218601732
1.0091916458103092
1.0083313664022748
1.0091931525298896
1.0088089825814246
1.0091930440085977
1.0090790696259364
1.0091926915342266
1.0091720430038345
1.0091925482506916
1.0091911236735913
1.0091925167757239
1.0091930903485868
1.0091925167757239
1.0091911236735913
1.0091925482506916
1.0091720430038345
1.0091926915342266
1.0090790696259364
1.0091930440085977
1.0088089825814246
1.0091931525298896
1.0083313664022748
1.0091916458103092
1.0077851218601732
1.0091884405150888
1.0072511521521212
1.0091856171854354
1.006692850924285
1.0095885459698226
1.0118018016121928
1.0095899831449877
1.0111799332611542
1.0095912079328226
1.0106322381776234
1.0095915819093395
1.0101679736701996
1.0095913636009808
1.0098411592696936
1.0095911238142303
1.009673378243469
1.0095910317953649
1.0096122739084128
1.0095910118653795
1.009599055219591
1.0095910118653795
1.0096122739084128
1.0095910317953649
1.009673378243469
1.0095911238142303
1.0098411592696936
1.0095913636009808
1.0101679736701996
1.0095915819093395
1.0106322381776234
1.0095912079328226
1.0111799332611542
1.0095899831449877
1.0118018016121928
1.0095885459698226
1.0124316508531859
1.0228057755817812
1.0231266768523108
1.0228085446533439
1.0232080004216544
1.0228109482939198
1.0232644736455454
1.0228117874195144
1.0231905900943035
1.0228115264449864
1.0230237959793624
1.0228111565954292
1.0228928822642136
1.0228110049163959
1.0228343437757805
1.0228109706288377
1.0228203571152199
1.0228109706288377
1.0228343437757805
1.0228110049163959
1.0228928822642136
1.0228111565954292
1.0230237959793624
1.0228115264449864
1.0231905900943035
1.0228117874195144
1.0232644736455454
1.0228109482939198
1.0232080004216544
1.0228085446533439
1.0231266768523108
1.0228057755817812
1.0229773699100257
1.0382934523980436
1.0412860765850744
1.0382970486041907
1.0404439862280432
1.0382993381526981
1.0397370477936558
1.0382998180985483
1.0391297461506712
1.0382992188682543
1.0386744704467663
1.0382986316012583
1.0384264673005761
1.0382984022175683
1.0383322658912959
1.0382983513308122
1.0383113858536377
1.0382983513308122
1.0383322658912959
1.0382984022175683
1.0384264673005761
1.0382986316012583
1.0386744704467663
1.0382992188682543
1.0391297461506712
1.0382998180985483
1.0397370477936558
1.0382993381526981
1.0404439862280432
1.0382970486041907
1.0412860765850744
1.0382934523980436
1.0420877279156189
1.0728224585829431
1.0753841844927816
1.072828391453744
1.0747566570911149
1.072831401439837
1.0742341419256278
1.0728318473358853
1.0737082806412817
1.0728309505369806
1.073248339449044
1.0728301135556493
1.072976390662963
1.0728297863136425
1.0728690573764486
1.0728297134891385
1.0728448939742048
1.0728297134891385
1.0728690573764486
1.0728297863136425
1.072976390662963
1.0728301135556493
1.073248339449044
1.0728309505369806
1.0737082806412817
1.0728318473358853
1.0742341419256278
1.072831401439837
1.0747566570911149
1.072828391453744
1.0753841844927816
1.0728224585829431
1.0758581800212434
1.1277680866032427
1.1318946260011746
1.1277781440587111
1.1306235578597597
1.1277816411909674
1.1296730473757923
1.1277816170886981
1.1288886004499981
1.1277801393441673
1.1282866849449187
1.1277789394928766
1.1279516997095385
1.1277784896664327
1.1278237911479667
1.1277783919600741
1.1277955604590904
1.1277783919600741
1.1278237911479667
1.1277784896664327
1.1279516997095385
1.1277789394928766
1.1282866849449187
1.1277801393441673
1.1288886004499981
1.1277816170886981
1.1296730473757923
1.1277816411909674
1.1306235578597597
1.1277781440587111
1.1318946260011746
1.1277680866032427
1.1329642401978293
1.2170334883788838
1.2215761404282668
1.2170498143185737
1.2201450132527851
1.2170533101462477
1.2191379497392045
1.217052529127115
1.2182925974880403
1.2170503452926968
1.2176194642882312
1.2170487357900632
1.2172408116991358
1.2170481569629159
1.2170974744273266
1.2170480352034598
1.2170662840903264
1.2170480352034598
1.2170974744273266
1.2170481569629159
1.2172408116991358
1.2170487357900632
1.2176194642882312
1.2170503452926968
1.2182925974880403
1.217052529127115
1.2191379497392045
1.2170533101462477
1.2201450132527851
1.2170498143185737
1.2215761404282668
1.2170334883788838
1.2227001388253087
1.3413869467776305
1.3468068700871261
1.3414107950643979
1.3450071414713654
1.3414134776928195
1.3438067706932728
1.3414115519719829
1.3428231996231195
1.3414084559246475
1.342045072956078
1.341406382688499
1.3416153412788896
1.3414056805425756
1.3414573573372317
1.3414055401334719
1.3414239397316408
1.3414055401334719
1.3414573573372317
1.3414056805425756
1.3416153412788896
1.341406382688499
1.342045072956078
1.3414084559246475
1.3428231996231195
1.3414115519719829
1.3438067706932728
1.3414134776928195
1.3450071414713654
1.3414107950643979
1.3468068700871261
1.3413869467776305
1.3486451353339457
1.4911724458237214
1.4967925790285825
1.491202305287513
1.4950034739406144
1.4912031338205392
1.4938018992747095
1.4911998916396596
1.4927481709727501
1.4911958425145884
1.4918830201120565
1.4911933477482053
1.4914112532113375
1.4911925599838047
1.4912439144266387
1.4911924122011693
1.4912098031455503
1.4911924122011693
1.4912439144266387
1.4911925599838047
1.4914112532113375
1.4911933477482053
1.4918830201120565
1.4911958425145884
1.4927481709727501
1.4911998916396596
1.4938018992747095
1.4912031338205392
1.4950034739406144
1.491202305287513
1.4967925790285825
1.4911724458237214
1.5
1.6402456510718375
1.6459161347454103
1.6402787281856077
1.6442367327057272
1.6402778259651312
1.6430533800655847
1.6402735726446793
1.6419273581690834
1.640268744366022
1.6409815675442461
1.6402659913702395
1.6404813929723276
1.6402651911554949
1.6403129294210819
1.6402650523476183
1.6402802456470758
1.6402650523476183
1.6403129294210819
1.6402651911554949
1.6404813929723276
1.6402659913702395
1.6409815675442461
1.640268744366022
1.6419273581690834
1.6402735726446793
1.6430533800655847
1.6402778259651312
1.6442367327057272
1.6402787281856077
1.6459161347454103
1.6402456510718375
1.6513548646660543
1.7650613134023707
1.7705135451512948
1.7650931576113214
1.769073141885487
1.7650926084853327
1.7679697874555513
1.7650882603522438
1.7667850313848534
1.7650831104653995
1.7657822492314477
1.7650803920306875
1.7652789128834767
1.7650796733432639
1.7651206052278634
1.7650795592174851
1.7650917039322689
1.7650795592174851
1.7651206052278634
1.7650796733432639
1.7652789128834767
1.7650803920306875
1.7657822492314477
1.7650831104653995
1.7667850313848534
1.7650882603522438
1.7679697874555513
1.7650926084853327
1.769073141885487
1.7650931576113214
1.7705135451512948
1.7650613134023707
1.7772998611746911
1.8548046623496048
1.8603263151938547
1.8548330141497822
1.8589081042056625
1.8548343866545531
1.8577778668232765
1.8548305402993741
1.856494394197115
1.8548256098913865
1.8554668220381785
1.8548232411452621
1.8549922548151583
1.8548226764260147
1.8548549197915063
1.8548225945333068
1.8548314944606594
1.8548225945333068
1.8548549197915063
1.8548226764260147
1.8549922548151583
1.8548232411452621
1.8554668220381785
1.8548256098913865
1.856494394197115
1.8548305402993741
1.8577778668232765
1.8548343866545531
1.8589081042056625
1.8548330141497822
1.8603263151938547
1.8548046623496048
1.8670357598021707
1.9138866447916472
1.9189374866493027
1.9139094886577022
1.9178077009643739
1.9139125841141873
1.9167452800734666
1.9139095561728581
1.9154267719030673
1.9139054139122389
1.9144481356798764
1.9139036134962661
1.9140361824340595
1.9139032252651087
1.9139266910070227
1.9139031735406438
1.9139092256839283
1.9139031735406438
1.9139266910070227
1.9139032252651087
1.9140361824340595
1.9139036134962661
1.9144481356798764
1.9139054139122389
1.9154267719030673
1.9139095561728581
1.9167452800734666
1.9139125841141873
1.9178077009643739
1.9139094886577022
1.9189374866493027
1.9138866447916472
1.9241418199787566
1.9482732368496229
1.9537051364667868
1.9482907518316062
1.9523163150891421
1.9482945345605061
1.9509915372198694
1.9482922102426665
1.9496033961229653
1.9482890999035722
1.9487184424573132
1.948287889729758
1.9483849603249164
1.9482876527498965
1.9483036728863632
1.9482876235166657
1.9482915108263663
1.9482876235166657
1.9483036728863632
1.9482876527498965
1.9483849603249164
1.948287889729758
1.9487184424573132
1.9482890999035722
1.9496033961229653
1.9482922102426665
1.9509915372198694
1.9482945345605061
1.9523163150891421
1.9482907518316062
1.9537051364667868
1.9482732368496229
1.9579122720843811
1.9709547864745223
1.9746541621255838
1.9709666979909821
1.9739517491431178
1.9709703971134098
1.9730268259955834
1.9709690398273958
1.9719387783760596
1.9709670914209758
1.9712692969859753
1.9709663875295949
1.9710312661280507
1.970966259073603
1.9709764400050658
1.970966244129885
1.970968604711417
1.970966244129885
1.9709764400050658
1.970966259073603
1.9710312661280507
1.9709663875295949
1.9712692969859753
1.9709670914209758
1.9719387783760596
1.9709690398273958
1.9730268259955834
1.9709703971134098
1.9739517491431178
1.9709666979909821
1.9746541621255838
1.9709547864745223
1.9770226300899743
1.9804376135612636
1.985133455256243
1.9804456294656037
1.9837278754096161
1.9804483773731534
1.9823447429394017
1.9804474158485752
1.9812251819952329
1.9804462237830129
1.9806654016564091
1.9804458385888173
1.9804894963121054
1.9804457739844619
1.9804522287019224
1.9804457669246827
1.9804471942946846
1.9804457669246827
1.9804522287019224
1.9804457739844619
1.9804894963121054
1.9804458385888173
1.9806654016564091
1.9804462237830129
1.9812251819952329
1.9804474158485752
1.9823447429394017
1.9804483773731534
1.9837278754096161
1.9804456294656037
1.985133455256243
1.9804376135612636
1.9875683491468141
1.9915641144025016
1.9925419682382948
1.9915701777974109
1.9923505779171755
1.9915729643025275
1.9921373709559556
1.9915726722796232
1.9918473740559459
1.9915720642188521
1.9916582590936154
1.9915718675355947
1.9915902189820722
1.9915718346419262
1.9915746657150408
1.9915718310580106
1.9915724739890648
1.9915718310580106
1.9915746657150408
1.9915718346419262
1.9915902189820722
1.9915718675355947
1.9916582590936154
1.9915720642188521
1.9918473740559459
1.9915726722796232
1.9921373709559556
1.9915729643025275
1.9923505779171755
1.9915701777974109
1.9925419682382948
1.9915641144025016
1.993307149075715
1.9917583848875822
1.9949135335505248
1.9917612318586806
1.9937753665869642
1.9917623522410581
1.9927802622638195
1.9917621028949406
1.9921294003374306
1.9917618106603256
1.9918549560535441
1.9917617289717378
1.9917787720669007
1.9917617168405071
1.9917640658952029
1.9917617156390657
1.9917622064160316
1.9917617156390657
1.9917640658952029
1.9917617168405071
1.9917787720669007
1.9917617289717378
1.9918549560535441
1.9917618106603256
1.9921294003374306
1.9917621028949406
1.9927802622638195
1.9917623522410581
1.9937753665869642
1.9917612318586806
1.9949135335505248
1.9917583848875822
1.9964063974185799
1.9996641979828784
1.9981002538284316
1.9996713916467881
1.9982238786564366
1.9996746970035753
1.9986858054652969
1.9996740940847646
1.9992566181880596
1.9996731421193505
1.9995607178936978
1.9996728416206768
1.9996521815950534
1.9996727920569111
1.9996700269276255
1.9996727866613697
1.9996722367064124
1.9996727866613697
1.9996700269276255
1.9996727920569111
1.9996521815950534
1.9996728416206768
1.9995607178936978
1.9996731421193505
1.9992566181880596
1.9996740940847646
1.9986858054652969
1.9996746970035753
1.9982238786564366
1.9996713916467881
1.9981002538284316
1.9996641979828784
1.9980732653366724
1.9965426820979322
1.9981588781231838
1.9965434406669105
1.9974856077071874
1.9965437158858077
1.9969777098890062
1.9965436769728271
1.9966915661966853
1.9965436454342009
1.9965802364444289
1.9965436420414542
1.9965503031729228
1.9965436424602214
1.9965445651360414
1.9965436426029468
1.9965438370464144
1.9965436426029468
1.9965445651360414
1.9965436424602214
1.9965503031729228
1.9965436420414542
1.9965802364444289
1.9965436454342009
1.9966915661966853
1.9965436769728271
1.9969777098890062
1.9965437158858077
1.9974856077071874
1.9965434406669105
1.9981588781231838
1.9965426820979322
1.9989677689632452
2.0037747796577396
2.0005136804186847
2.0037924884268339
2.001207068914022
2.0037961539615194
2.0019057324323581
2.0037936695878114
2.0028535763524662
2.0037907884285038
2.0034908476089095
2.0037897574525041
2.0037252769424656
2.0037895679985405
2.0037795811575001
2.0037895457717267
2.0037872814613094
2.0037895457717267
2.0037795811575001
2.0037895679985405
2.0037252769424656
2.0037897574525041
2.0034908476089095
2.0037907884285038
2.0028535763524662
2.0037936695878114
2.0019057324323581
2.0037961539615194
2.001207068914022
2.0037924884268339
2.0005136804186847
2.0037747796577396
1.9994472213630763
1.9987844057246191
1.999411507220388
1.9987843137322421
1.9991284535962237
1.9987843667369884
1.9989318422483608
1.9987843947712203
1.9988338995051491
1.998784419989267
1.9987974213021629
1.9987844336355771
1.9987870713772673
1.9987844372881955
1.9987848534984411
1.9987844378692985
1.9987845374013149
1.9987844378692985
1.9987848534984411
1.9987844372881955
1.9987870713772673
1.9987844336355771
1.9987974213021629
1.998784419989267
1.9988338995051491
1.9987843947712203
1.9989318422483608
1.9987843667369884
1.9991284535962237
1.9987843137322421
1.999411507220388
1.9987844057246191
1.999704042886487
2.0068465632163557
2.0022427414517323
2.0068835500198139
2.0036211306369882
2.0068793322790199
2.004626424476295
2.0068726402214141
2.0057000343430378
2.0068675521479689
2.0064599045648501
2.0068656486904723
2.0067694318768421
2.006865262272385
2.0068489107969358
2.0068652124666961
2.0068611799706124
2.0068652124666961
2.0068489107969358
2.006865262272385
2.0067694318768421
2.0068656486904723
2.0064599045648501
2.0068675521479689
2.0057000343430378
2.0068726402214141
2.004626424476295
2.0068793322790199
2.0036211306369882
2.0068835500198139
2.0022427414517323
2.0068465632163557
1.9998415637808975
1.9999151889582765
1.9999151889582765
1.9999151889582765
1.9999151889582765
1.9999151889582765
1.9999151889582765
1.9999151889582765
1.9999151889582765
1.9999151889582765
1.9999151889582765
1.9999151889582765
1.9999151889582765
1.9999151889582765
1.9999151889582765
1.9999151889582765
1.9999151889582765
1.9999151889582765
1.9999151889582765
1.9999151889582765
1.9999151889582765
1.9999151889582765
1.9999151889582765
1.9999151889582765
1.9999151889582765
1.9999151889582765
1.9999151889582765
1.9999151889582765
1.9999151889582765
1.9999151889582765
1.9999151889582765
1.9999151889582765
1.9999151889582765
1.0021272859846542
1.0010127701653524
1.0021502541970186
1.001402166121625
1.0021515157925445
1.001541088427504
1.0021491411965895
1.0015381179518001
1.002148204559439
1.0016005587082177
1.0021466778704982
1.0018105010883156
1.0021449917002039
1.0019991601846621
1.0021442115641583
1.0020649906772261
1.0021442115641583
1.0019991601846621
1.0021449917002039
1.0018105010883156
1.0021466778704982
1.0016005587082177
1.002148204559439
1.0015381179518001
1.0021491411965895
1.001541088427504
1.0021515157925445
1.001402166121625
1.0021502541970186
1.0010127701653524
1.0021272859846542
1.0000453978687025
0.99996152354900103
1.0000623252069232
0.99996136528301893
1.0000301245610097
0.99996133492808037
1.0000021618365305
0.99996135218348881
0.99998139227834482
0.99996136776053268
0.99996934706139107
0.99996137721274381
0.99996401475248364
0.9999613828975904
0.99996214936948302
0.9999613852593644
0.99996172791254523
0.9999613852593644
0.99996214936948302
0.9999613828975904
0.99996401475248364
0.99996137721274381
0.99996934706139107
0.99996136776053268
0.99998139227834482
0.99996135218348881
1.0000021618365305
0.99996133492808037
1.0000301245610097
0.99996136528301893
1.0000623252069232
0.99996152354900103
1.0000848110417238
1.0012909044101879
1.0005043000785454
1.0013021423037793
1.0006399670590524
1.0013054541982018
1.0007252214641489
1.0013053240146388
1.0007128534995562
1.0013053616673651
1.0007859860782577
1.0013041529364219
1.0010005679301364
1.0013027680030724
1.0011790619781522
1.0013021708355956
1.0012383878959732
1.0013021708355956
1.0011790619781522
1.0013027680030724
1.0010005679301364
1.0013041529364219
1.0007859860782577
1.0013053616673651
1.0007128534995562
1.0013053240146388
1.0007252214641489
1.0013054541982018
1.0006399670590524
1.0013021423037793
1.0005043000785454
1.0012909044101879
1.0001584362191025
1.0000553301180501
1.0002475150527321
1.0000553715275002
1.0001961880232657
1.000055379727713
1.0001467099949521
1.0000553844163487
1.0001038836134224
1.0000553831976937
1.0000755349343555
1.0000553827047378
1.0000619404877875
1.0000553843312334
1.0000571338286783
1.0000553854277743
1.0000560872863273
1.0000553854277743
1.0000571338286783
1.0000553843312334
1.0000619404877875
1.0000553827047378
1.0000755349343555
1.0000553831976937
1.0001038836134224
1.0000553844163487
1.0001467099949521
1.000055379727713
1.0001961880232657
1.0000553715275002
1.0002475150527321
1.0000553301180501
1.0002959571135133
1.0011913724818078
1.0006467666096177
1.0011959405912887
1.0007085186226958
1.0011980907851004
1.0007084546961253
1.0011991829859666
1.0006266968151341
1.0011995674474803
1.0007317434034928
1.0011985787672806
1.0009588154352296
1.0011976721933957
1.0011126503956349
1.0011973441492727
1.0011579595443267
1.0011973441492727
1.0011126503956349
1.0011976721933957
1.0009588154352296
1.0011985787672806
1.0007317434034928
1.0011995674474803
1.0006266968151341
1.0011991829859666
1.0007084546961253
1.0011980907851004
1.0007085186226958
1.0011959405912887
1.0006467666096177
1.0011913724818078
1.0005527786369237
1.0006925412909951
1.0009793571346304
1.0006926437310597
1.000917056102699
1.0006927240305343
1.0008510291315151
1.0006927551674283
1.0007852377443802
1.0006927446978218
1.0007347597333895
1.0006927307321534
1.0007072924153071
1.0006927256346163
1.0006967172435657
1.0006927246746216
1.0006943222350746
1.0006927246746216
1.0006967172435657
1.0006927256346163
1.0007072924153071
1.0006927307321534
1.0007347597333895
1.0006927446978218
1.0007852377443802
1.0006927551674283
1.0008510291315151
1.0006927240305343
1.000917056102699
1.0006926437310597
1.0009793571346304
1.0006925412909951
1.001032231036755
1.0022990041372861
1.0018912277334964
1.0023007193658893
1.0018471192314178
1.0023020886125664
1.001754793724178
1.0023032989539515
1.0017678377843275
1.0023034121642491
1.0019667482064702
1.0023027999497951
1.0021648925900295
1.0023024018969744
1.0022620926248236
1.0023022837680047
1.0022861226521429
1.0023022837680047
1.0022620926248236
1.0023024018969744
1.0021648925900295
1.0023027999497951
1.0019667482064702
1.0023034121642491
1.0017678377843275
1.0023032989539515
1.001754793724178
1.0023020886125664
1.0018471192314178
1.0023007193658893
1.0018912277334964
1.0022990041372861
1.0019267346633276
1.0032404400804296
1.0035697575637694
1.0032406178656657
1.0035163526848578
1.0032407852745089
1.003457685813379
1.0032408621884188
1.0033866578467334
1.0032408411480005
1.0033160601147324
1.0032408017759407
1.0032694745337394
1.0032407835875525
1.0032491954498759
1.0032407790505986
1.0032442897023568
1.0032407790505986
1.0032491954498759
1.0032407835875525
1.0032694745337394
1.0032408017759407
1.0033160601147324
1.0032408411480005
1.0033866578467334
1.0032408621884188
1.003457685813379
1.0032407852745089
1.0035163526848578
1.0032406178656657
1.0035697575637694
1.0032404400804296
1.0035936025814203
1.0074296569103867
1.0067719790728209
1.0074305156142838
1.006821761725903
1.0074316054904908
1.0069210164711122
1.0074323769753883
1.0071170644754397
1.0074323703733732
1.0073032262852197
1.0074321213998958
1.0073973265179959
1.0074319935032496
1.0074258513916841
1.0074319601071859
1.0074306909173183
1.0074319601071859
1.0074258513916841
1.0074319935032496
1.0073973265179959
1.0074321213998958
1.0073032262852197
1.0074323703733732
1.0071170644754397
1.0074323769753883
1.0069210164711122
1.0074316054904908
1.006821761725903
1.0074305156142838
1.0067719790728209
1.0074296569103867
1.006692850924285
1.0121739745710616
1.0124862371973755
1.0121743571346031
1.0124517137790761
1.0121746265659446
1.0124204674179056
1.0121747482491521
1.0123668540092574
1.0121747032404711
1.0122870755966589
1.0121746101860345
1.012221520221974
1.0121745619478053
1.0121892857465165
1.0121745488334684
1.0121809741942052
1.0121745488334684
1.0121892857465165
1.0121745619478053
1.012221520221974
1.0121746101860345
1.0122870755966589
1.0121747032404711
1.0123668540092574
1.0121747482491521
1.0124204674179056
1.0121746265659446
1.0124517137790761
1.0121743571346031
1.0124862371973755
1.0121739745710616
1.0124316508531859
1.0239372327481941
1.0233068290836806
1.0239380484274834
1.0234914056016882
1.0239387766210499
1.0237162430427582
1.0239391541462914
1.023909611504989
1.0239391176504014
1.0239807472399833
1.0239389629110958
1.0239714634407029
1.0239388795076183
1.0239521107175849
1.0239388562922291
1.0239453970607686
1.0239388562922291
1.0239521107175849
1.0239388795076183
1.0239714634407029
1.0239389629110958
1.0239807472399833
1.0239391176504014
1.023909611504989
1.0239391541462914
1.0237162430427582
1.0239387766210499
1.0234914056016882
1.0239380484274834
1.0233068290836806
1.0239372327481941
1.0229773699100257
1.0419714219118759
1.0422998034891908
1.0419724030681712
1.0422421767789585
1.0419727488850847
1.0422224966511431
1.0419728495112826
1.0421924077415694
1.0419727530940561
1.0421152391546005
1.0419725761488254
1.0420364826631394
1.0419724779352426
1.0419935520251518
1.0419724497235261
1.0419819241598365
1.0419724497235261
1.0419935520251518
1.0419724779352426
1.0420364826631394
1.0419725761488254
1.0421152391546005
1.0419727530940561
1.0421924077415694
1.0419728495112826
1.0422224966511431
1.0419727488850847
1.0422421767789585
1.0419724030681712
1.0422998034891908
1.0419714219118759
1.0420877279156189
1.0765475209602515
1.0763838206531646
1.0765491891047023
1.0764654305567252
1.0765495928110709
1.0766041415347607
1.0765496822416318
1.0766978450887141
1.0765495600066015
1.0766789824640723
1.0765493370268282
1.0766142711540339
1.0765492101476399
1.0765717091144869
1.0765491730815251
1.0765594959048359
1.0765491730815251
1.0765717091144869
1.0765492101476399
1.0766142711540339
1.0765493370268282
1.0766789824640723
1.0765495600066015
1.0766978450887141
1.0765496822416318
1.0766041415347607
1.0765495928110709
1.0764654305567252
1.0765491891047023
1.0763838206531646
1.0765475209602515
1.0758581800212434
1.1329385782615369
1.1333859166378673
1.1329413594985234
1.1332151902950378
1.1329414325399347
1.1331816938218868
1.1329413085516695
1.1331726803652173
1.1329411120524677
1.1331027700279306
1.1329408366704723
1.1330159182122428
1.1329406826866091
1.1329656585869321
1.1329406379803282
1.1329518112507235
1.1329406379803282
1.1329656585869321
1.1329406826866091
1.1330159182122428
1.1329408366704723
1.1331027700279306
1.1329411120524677
1.1331726803652173
1.1329413085516695
1.1331816938218868
1.1329414325399347
1.1332151902950378
1.1329413594985234
1.1333859166378673
1.1329385782615369
1.1329642401978293
1.2227394187446805
1.2230080680899478
1.2227433036031092
1.2228708910738306
1.2227429162857171
1.2229086221539964
1.2227426356319298
1.2229546147014452
1.2227424008027439
1.222904598817204
1.2227420871960422
1.2228188183680131
1.2227419129800809
1.2227671708471362
1.222741863109069
1.2227529476633345
1.222741863109069
1.2227671708471362
1.2227419129800809
1.2228188183680131
1.2227420871960422
1.222904598817204
1.2227424008027439
1.2229546147014452
1.2227426356319298
1.2229086221539964
1.2227429162857171
1.2228708910738306
1.2227433036031092
1.2230080680899478
1.2227394187446805
1.2227001388253087
1.3474252947965866
1.3477896619827578
1.3474292760912581
1.3475952941916043
1.3474283718437396
1.3476103608939582
1.3474280049309684
1.3476535267696768
1.3474277616807524
1.3475967903543145
1.3474274277132359
1.3475049189472339
1.3474272458942127
1.3474517110425039
1.3474271954857397
1.3474375060340813
1.3474271954857397
1.3474517110425039
1.3474272458942127
1.3475049189472339
1.3474274277132359
1.3475967903543145
1.3474277616807524
1.3476535267696768
1.3474280049309684
1.3476103608939582
1.3474283718437396
1.3475952941916043
1.3474292760912581
1.3477896619827578
1.3474252947965866
1.3486451353339457
1.497029483079912
1.4970860427124826
1.4970323622626165
1.4970539603058304
1.4970312804910111
1.4971614781739899
1.4970310027423461
1.4972473473411354
1.4970308028798869
1.4971965029911383
1.4970304835765149
1.4971039062350044
1.4970303140323471
1.4970522522617098
1.4970302690878818
1.4970390164024427
1.4970302690878818
1.4970522522617098
1.4970303140323471
1.4971039062350044
1.4970304835765149
1.4971965029911383
1.4970308028798869
1.4972473473411354
1.4970310027423461
1.4971614781739899
1.4970312804910111
1.4970539603058304
1.4970323622626165
1.4970860427124826
1.497029483079912
1.5