# vtk DataFile Version 3.0
Euler density step 284
ASCII
DATASET STRUCTURED_POINTS
DIMENSIONS 32 32 32
ORIGIN 0 0 0
SPACING 0.3125 0.3125 0.3125
POINT_DATA 32768
SCALARS density double 1
LOOKUP_TABLE default
1.0055311566600558
1.0019999521915641
1.0055398523973376
1.0039507912993333
1.0055388256107531
1.0050673018107619
1.0055375249938125
1.0054483101734291
1.0055372585984879
1.0055260119836065
1.0055372324338048
1.0055362374664929
1.0055372308400736
1.005537166207324
1.0055372307737378
1.0055372244327141
1.0055372307737378
1.005537166207324
1.0055372308400736
1.0055362374664929
1.0055372324338048
1.0055260119836065
1.0055372585984879
1.0054483101734291
1.0055375249938125
1.0050673018107619
1.0055388256107531
1.0039507912993333
1.0055398523973376
1.0019999521915641
1.0055311566600558
1.0000453978687025
1.0000825187944908
1.0000862806183144
1.0000825065868006
1.0000844200904795
1.0000825057560279
1.0000831488878101
1.0000825070415407
1.0000826452808897
1.000082507385347
1.0000825269867917
1.0000825074242132
1.0000825093531251
1.0000825074266979
1.0000825075649051
1.0000825074267932
1.0000825074416548
1.0000825074267932
1.0000825075649051
1.0000825074266979
1.0000825093531251
1.0000825074242132
1.0000825269867917
1.000082507385347
1.0000826452808897
1.0000825070415407
1.0000831488878101
1.0000825057560279
1.0000844200904795
1.0000825065868006
1.0000862806183144
1.0000825187944908
1.0000848110417238
1.0046831872621196
1.0021009375215684
1.0046869062226667
1.0036404926339704
1.0046868755913492
1.0044207227083328
1.0046865245597947
1.0046433668526673
1.0046864592712792
1.0046817434357429
1.0046864536570461
1.0046860878875674
1.0046864533607829
1.0046864323445641
1.0046864533505944
1.0046864515126119
1.0046864533505944
1.0046864323445641
1.0046864533607829
1.0046860878875674
1.0046864536570461
1.0046817434357429
1.0046864592712792
1.0046433668526673
1.0046865245597947
1.0044207227083328
1.0046868755913492
1.0036404926339704
1.0046869062226667
1.0021009375215684
1.0046831872621196
1.0001584362191025
1.0002846428706811
1.0002914653545154
1.0002846442964117
1.0002874581492514
1.0002846436669592
1.0002854225454119
1.0002846436656354
1.0002847846610701
1.0002846436901445
1.0002846610001808
1.0002846436931458
1.0002846452051399
1.0002846436932888
1.0002846437914983
1.0002846436932895
1.0002846437030513
1.0002846436932895
1.0002846437914983
1.0002846436932888
1.0002846452051399
1.0002846436931458
1.0002846610001808
1.0002846436901445
1.0002847846610701
1.0002846436656354
1.0002854225454119
1.0002846436669592
1.0002874581492514
1.0002846442964117
1.0002914653545154
1.0002846428706811
1.0002959571135133
1.0027962033628479
1.0016454071887506
1.0027970664167321
1.0024119969374168
1.002797127330636
1.0027169812256447
1.0027970900946073
1.0027862621057966
1.0027970834409072
1.0027960788864261
1.0027970829282309
1.002797015811544
1.0027970829054567
1.0027970795517369
1.0027970829049224
1.0027970826482213
1.0027970829049224
1.0027970795517369
1.0027970829054567
1.002797015811544
1.0027970829282309
1.0027960788864261
1.0027970834409072
1.0027862621057966
1.0027970900946073
1.0027169812256447
1.002797127330636
1.0024119969374168
1.0027970664167321
1.0016454071887506
1.0027962033628479
1.0005527786369237
1.0009708960234698
1.0010037533891938
1.0009708976766525
1.0009823527477404
1.0009708976726588
1.0009735438228153
1.0009708976162508
1.0009713108964418
1.0009708976083505
1.0009709430936702
1.0009708976077127
1.0009709012833776
1.0009708976076701
1.000970897833964
1.0009708976076679
1.0009708976293969
1.0009708976076679
1.000970897833964
1.0009708976076701
1.0009709012833776
1.0009708976077127
1.0009709430936702
1.0009708976083505
1.0009713108964418
1.0009708976162508
1.0009735438228153
1.0009708976726588
1.0009823527477404
1.0009708976766525
1.0010037533891938
1.0009708960234698
1.001032231036755
1.0024975987732498
1.0022513380519082
1.0024977152306953
1.0024334458815358
1.0024977283808172
1.0024877328792778
1.0024977266067361
1.0024967724169742
1.0024977262428361
1.0024976714600105
1.0024977262174963
1.002497724792867
1.0024977262166874
1.0024977262658594
1.0024977262166914
1.0024977262310981
1.0024977262166914
1.0024977262658594
1.0024977262166874
1.002497724792867
1.0024977262174963
1.0024976714600105
1.0024977262428361
1.0024967724169742
1.0024977266067361
1.0024877328792778
1.0024977283808172
1.0024334458815358
1.0024977152306953
1.0022513380519082
1.0024975987732498
1.0019267346633276
1.0034047788415132
1.0035074495171568
1.0034047862829207
1.0034406535288318
1.0034047867178935
1.0034130625622999
1.0034047863840978
1.0034060775811928
1.0034047863229993
1.0034049283973627
1.0034047863178841
1.0034047978021816
1.0034047863176077
1.0034047870249514
1.0034047863175952
1.0034047863855344
1.0034047863175952
1.0034047870249514
1.0034047863176077
1.0034047978021816
1.0034047863178841
1.0034049283973627
1.0034047863229993
1.0034060775811928
1.0034047863840978
1.0034130625622999
1.0034047867178935
1.0034406535288318
1.0034047862829207
1.0035074495171568
1.0034047788415132
1.0035936025814203
1.0065135953714619
1.0066333227467048
1.0065136227063389
1.0065619690147631
1.0065136248348319
1.0065259217154601
1.0065136238936709
1.0065156605655128
1.0065136237132826
1.0065138561429166
1.006513623698279
1.0065136429160086
1.0065136236974881
1.006513624898087
1.0065136236974581
1.0065136238137999
1.0065136236974581
1.006513624898087
1.0065136236974881
1.0065136429160086
1.006513623698279
1.0065138561429166
1.0065136237132826
1.0065156605655128
1.0065136238936709
1.0065259217154601
1.0065136248348319
1.0065619690147631
1.0065136227063389
1.0066333227467048
1.0065135953714619
1.006692850924285
1.0119567101839473
1.0122266428381281
1.0119567548933557
1.0120538358697877
1.0119567559005744
1.0119797201260845
1.0119567531826206
1.0119604012849495
1.0119567527036626
1.0119571590615906
1.0119567526634121
1.0119567857717533
1.0119567526611892
1.0119567547101507
1.0119567526610971
1.0119567528583757
1.0119567526610971
1.0119567547101507
1.0119567526611892
1.0119567857717533
1.0119567526634121
1.0119571590615906
1.0119567527036626
1.0119604012849495
1.0119567531826206
1.0119797201260845
1.0119567559005744
1.0120538358697877
1.0119567548933557
1.0122266428381281
1.0119567101839473
1.0124316508531859
1.0222839878960697
1.0226927843963018
1.0222840887696716
1.022434096073281
1.0222840883682167
1.0223201227086376
1.0222840812801954
1.0222898614867215
1.0222840800594977
1.0222847273955098
1.022284079957005
1.0222841328270327
1.0222840799513073
1.0222840832243834
1.0222840799510713
1.0222840802658595
1.0222840799510713
1.0222840832243834
1.0222840799513073
1.0222841328270327
1.022284079957005
1.0222847273955098
1.0222840800594977
1.0222898614867215
1.0222840812801954
1.0223201227086376
1.0222840883682167
1.022434096073281
1.0222840887696716
1.0226927843963018
1.0222839878960697
1.0229773699100257
1.0410682519604437
1.0416811937980834
1.0410684657707394
1.0412944539549052
1.0410684572892808
1.0411230173860748
1.0410684399777794
1.0410772119801739
1.0410684370889389
1.0410694189347269
1.0410684368479632
1.0410685168091436
1.0410684368345373
1.0410684417617573
1.0410684368339738
1.041068437305029
1.0410684368339738
1.0410684417617573
1.0410684368345373
1.0410685168091436
1.0410684368479632
1.0410694189347269
1.0410684370889389
1.0410772119801739
1.0410684399777794
1.0411230173860748
1.0410684572892808
1.0412944539549052
1.0410684657707394
1.0416811937980834
1.0410682519604437
1.0420877279156189
1.0744357434950287
1.0753118603298704
1.0744361719425686
1.0747608692225026
1.0744361365413875
1.0745147401338671
1.0744360974701008
1.0744487048353948
1.0744360911977657
1.0744374929186298
1.0744360906815202
1.0744362037162254
1.0744360906528629
1.0744360975332827
1.0744360906516599
1.0744360913003759
1.0744360906516599
1.0744360975332827
1.0744360906528629
1.0744362037162254
1.0744360906815202
1.0744374929186298
1.0744360911977657
1.0744487048353948
1.0744360974701008
1.0745147401338671
1.0744361365413875
1.0747608692225026
1.0744361719425686
1.0753118603298704
1.0744357434950287
1.0758581800212434
1.1310066158787933
1.1322204862112522
1.1310074219128259
1.1314565651121107
1.1310073134102643
1.131115455682995
1.1310072321625009
1.1310243688345283
1.1310072197619121
1.1310090919931415
1.1310072187658426
1.1310073665312723
1.1310072187113238
1.1310072274873337
1.1310072187090561
1.1310072195146605
1.1310072187090561
1.1310072274873337
1.1310072187113238
1.1310073665312723
1.1310072187658426
1.1310090919931415
1.1310072197619121
1.1310243688345283
1.1310072321625009
1.131115455682995
1.1310073134102643
1.1314565651121107
1.1310074219128259
1.1322204862112522
1.1310066158787933
1.1329642401978293
1.2200109742840399
1.2216333938240684
1.2200123704749009
1.2206091004765642
1.2200120968200461
1.2201537868971029
1.2200119433536942
1.2200338701659228
1.22001192138222
1.2200142430964815
1.2200119196835588
1.2200120962555898
1.2200119195931012
1.2200119296509984
1.2200119195894192
1.2200119204719053
1.2200119195894192
1.2200119296509984
1.2200119195931012
1.2200120962555898
1.2200119196835588
1.2200142430964815
1.22001192138222
1.2200338701659228
1.2200119433536942
1.2201537868971029
1.2200120968200461
1.2206091004765642
1.2200123704749009
1.2216333938240684
1.2200109742840399
1.2227001388253087
1.3449511758672148
1.3470175699580984
1.3449533382756482
1.3457088608889805
1.3449527583798613
1.345128395461787
1.3449525000976816
1.3449787112361737
1.3449524658485874
1.344955111834554
1.3449524633421435
1.3449526535668723
1.344952463214782
1.3449524733891054
1.3449524632098304
1.3449524640441695
1.3449524632098304
1.3449524733891054
1.344952463214782
1.3449526535668723
1.3449524633421435
1.344955111834554
1.3449524658485874
1.3449787112361737
1.3449525000976816
1.345128395461787
1.3449527583798613
1.3457088608889805
1.3449533382756482
1.3470175699580984
1.3449511758672148
1.3486451353339457
1.4950624880370404
1.4975376525921331
1.4950654254304578
1.4959658857189111
1.4950644156747377
1.495267261815072
1.4950640437331688
1.495092773856594
1.4950639988764749
1.4950667140624521
1.4950639958463317
1.4950641769476514
1.4950639957034877
1.4950640046336883
1.4950639956983385
1.495063996370964
1.4950639956983385
1.4950640046336883
1.4950639957034877
1.4950641769476514
1.4950639958463317
1.4950667140624521
1.4950639988764749
1.495092773856594
1.4950640437331688
1.495267261815072
1.4950644156747377
1.4959658857189111
1.4950654254304578
1.4975376525921331
1.4950624880370404
1.5
1.6452549380866111
1.6480187021767345
1.6452583133228187
1.6462473328384857
1.6452569711975329
1.6454690018427691
1.6452565470573184
1.6452845978637147
1.6452565011678324
1.6452589530979791
1.6452564983542737
1.6452566487953326
1.6452564982330526
1.6452565050343237
1.6452564982290478
1.6452564986980003
1.6452564982290478
1.6452565050343237
1.6452564982330526
1.6452566487953326
1.6452564983542737
1.6452589530979791
1.6452565011678324
1.6452845978637147
1.6452565470573184
1.6454690018427691
1.6452569711975329
1.6462473328384857
1.6452583133228187
1.6480187021767345
1.6452549380866111
1.6513548646660543
1.7706293062238359
1.7734684996137555
1.7706324846906416
1.771608277293254
1.7706311832707513
1.7708270459989319
1.7706308159237643
1.7706548602407974
1.7706307800534078
1.7706327244423106
1.7706307780466251
1.7706308883042439
1.7706307779670412
1.7706307825716561
1.7706307779646115
1.7706307782579371
1.7706307779646115
1.7706307825716561
1.7706307779670412
1.7706308883042439
1.7706307780466251
1.7706327244423106
1.7706307800534078
1.7706548602407974
1.7706308159237643
1.7708270459989319
1.7706311832707513
1.771608277293254
1.7706324846906416
1.7734684996137555
1.7706293062238359
1.7772998611746911
1.8606482596196472
1.8632888954507474
1.860650738204096
1.8615052924193698
1.8606497924186076
1.8608095324902596
1.8606495449268732
1.8606678172701183
1.8606495227220146
1.8606509028397504
1.8606495215697958
1.8606495948204171
1.8606495215270973
1.8606495243945511
1.8606495215258736
1.8606495216972949
1.8606495215258736
1.8606495243945511
1.8606495215270973
1.8606495948204171
1.8606495215697958
1.8606509028397504
1.8606495227220146
1.8606678172701183
1.8606495449268732
1.8608095324902596
1.8606497924186076
1.8615052924193698
1.860650738204096
1.8632888954507474
1.8606482596196472
1.8670357598021707
1.9187244355420316
1.9209301980161027
1.9187260692033326
1.9193942095506666
1.9187255250718485
1.9188424136972224
1.918725389208664
1.9187379790438959
1.9187253777930977
1.918726277924262
1.9187253772342683
1.91872542263151
1.91872537721462
1.9187253789076972
1.9187253772140849
1.9187253773107014
1.9187253772140849
1.9187253789076972
1.91872537721462
1.91872542263151
1.9187253772342683
1.918726277924262
1.9187253777930977
1.9187379790438959
1.918725389208664
1.9188424136972224
1.9187255250718485
1.9193942095506666
1.9187260692033326
1.9209301980161027
1.9187244355420316
1.9241418199787566
1.9537637061314033
1.9554292442912515
1.9537646316397721
1.9542388942845192
1.9537643711364656
1.9538428077032819
1.9537643076765632
1.9537723608337161
1.9537643025982643
1.9537648549402624
1.9537643023602456
1.9537643292029661
1.9537643023522051
1.9537643033198417
1.9537643023519951
1.9537643024054892
1.9537643023519951
1.9537643033198417
1.9537643023522051
1.9537643292029661
1.9537643023602456
1.9537648549402624
1.9537643025982643
1.9537723608337161
1.9537643076765632
1.9538428077032819
1.9537643711364656
1.9542388942845192
1.9537646316397721
1.9554292442912515
1.9537637061314033
1.9579122720843811
1.9741328203128599
1.9752785689913801
1.974133278950013
1.9744438087127871
1.9741331711295911
1.974182351710114
1.9741331450128141
1.9741380178793975
1.9741331429934295
1.9741334674216076
1.9741331429017113
1.9741331582703256
1.9741331428987015
1.9741331434403158
1.974133142898626
1.9741331429279618
1.974133142898626
1.9741331434403158
1.9741331428987015
1.9741331582703256
1.9741331429017113
1.9741334674216076
1.9741331429934295
1.9741380178793975
1.9741331450128141
1.974182351710114
1.9741331711295911
1.9744438087127871
1.974133278950013
1.9752785689913801
1.9741328203128599
1.9770226300899743
1.9856541598616451
1.9863989192917524
1.9856543629915864
1.9858472778219234
1.9856543227969183
1.9856837969644443
1.9856543130195796
1.9856571542685109
1.9856543122823338
1.9856544974111912
1.9856543122496151
1.9856543208663184
1.9856543122485666
1.9856543125477373
1.9856543122485388
1.9856543122645349
1.9856543122485388
1.9856543125477373
1.9856543122485666
1.9856543208663184
1.9856543122496151
1.9856544974111912
1.9856543122823338
1.9856571542685109
1.9856543130195796
1.9856837969644443
1.9856543227969183
1.9858472778219234
1.9856543629915864
1.9863989192917524
1.9856541598616451
1.9875683491468141
1.9923674187756402
1.9927446143742866
1.9923675090128761
1.992468617559463
1.992367496627157
1.9923832100216343
1.9923674932605462
1.9923690185782492
1.9923674930028628
1.9923675925696944
1.992367492991419
1.9923674976219763
1.9923674929910529
1.9923674931514797
1.9923674929910444
1.9923674929995985
1.9923674929910444
1.9923674931514797
1.9923674929910529
1.9923674976219763
1.992367492991419
1.9923675925696944
1.9923674930028628
1.9923690185782492
1.9923674932605462
1.9923832100216343
1.992367496627157
1.992468617559463
1.9923675090128761
1.9927446143742866
1.9923674187756402
1.993307149075715
1.9956949514444617
1.9959653302755316
1.9956949815809013
1.9957611208547017
1.9956949771306274
1.995704641811344
1.9956949760210985
1.9956958775033053
1.9956949759401823
1.9956950332395318
1.9956949759367106
1.9956949785526046
1.9956949759366023
1.9956949760260199
1.9956949759365992
1.9956949759413183
1.9956949759365992
1.9956949760260199
1.9956949759366023
1.9956949785526046
1.9956949759367106
1.9956950332395318
1.9956949759401823
1.9956958775033053
1.9956949760210985
1.995704641811344
1.9956949771306274
1.9957611208547017
1.9956949815809013
1.9959653302755316
1.9956949514444617
1.9964063974185799
1.9990321862276783
1.99866609841021
1.9990323609498017
1.9989623280743027
1.9990323544097506
1.999024916978545
1.9990323506384471
1.999031872430131
1.9990323503102119
1.9990323307577593
1.9990323502942837
1.9990323497912439
1.9990323502937539
1.9990323502871115
1.9990323502937408
1.9990323502938352
1.9990323502937408
1.9990323502871115
1.9990323502937539
1.9990323497912439
1.9990323502942837
1.9990323307577593
1.9990323503102119
1.999031872430131
1.9990323506384471
1.999024916978545
1.9990323544097506
1.9989623280743027
1.9990323609498017
1.99866609841021
1.9990321862276783
1.9980732653366724
1.9987318063634978
1.9988247086651016
1.9987318082278569
1.9987546291134817
1.9987318082208427
1.9987351412225185
1.9987318082858594
1.9987321178976327
1.9987318082964329
1.9987318278550361
1.9987318082971557
1.9987318091837123
1.998731808297185
1.9987318083272643
1.9987318082971857
1.9987318082987611
1.9987318082971857
1.9987318083272643
1.998731808297185
1.9987318091837123
1.9987318082971557
1.9987318278550361
1.9987318082964329
1.9987321178976327
1.9987318082858594
1.9987351412225185
1.9987318082208427
1.9987546291134817
1.9987318082278569
1.9988247086651016
1.9987318063634978
1.9989677689632452
2.0033037518981636
2.0015049073879063
2.0033050924549145
2.002832157310185
2.0033048500982096
2.0032348274015113
2.0033047833098676
2.0032983872173267
2.0033047779301389
2.0033043869228604
2.0033047776756781
2.0033047606713121
2.0033047776670827
2.0033047771162669
2.0033047776668615
2.0033047776393906
2.0033047776668615
2.0033047771162669
2.0033047776670827
2.0033047606713121
2.0033047776756781
2.0033043869228604
2.0033047779301389
2.0032983872173267
2.0033047833098676
2.0032348274015113
2.0033048500982096
2.002832157310185
2.0033050924549145
2.0015049073879063
2.0033037518981636
1.9994472213630763
1.9996463323737692
1.999677629083606
1.9996463240094091
1.9996561936897053
1.9996463276984093
1.9996481023374724
1.9996463289633617
1.9996465227576827
1.999646329100949
1.9996463429880178
1.9996463291091726
1.999646329804865
1.9996463291095006
1.9996463291350937
1.9996463291095103
1.9996463291109428
1.9996463291095103
1.9996463291350937
1.9996463291095006
1.999646329804865
1.9996463291091726
1.9996463429880178
1.999646329100949
1.9996465227576827
1.9996463289633617
1.9996481023374724
1.9996463276984093
1.9996561936897053
1.9996463240094091
1.999677629083606
1.9996463323737692
1.999704042886487
2.0060714665004986
2.0029250415040156
2.0060758544547501
2.0050432039577983
2.0060737589474629
2.0058840403749012
2.0060732805609192
2.0060523856174428
2.0060732402091692
2.0060717378963933
2.0060732382142912
2.0060731628354742
2.0060732381440856
2.0060732353680244
2.006073238142192
2.0060732379866493
2.006073238142192
2.0060732353680244
2.0060732381440856
2.0060731628354742
2.0060732382142912
2.0060717378963933
2.0060732402091692
2.0060523856174428
2.0060732805609192
2.0058840403749012
2.0060737589474629
2.0050432039577983
2.0060758544547501
2.0029250415040156
2.0060714665004986
1.9998415637808975
1.9999151889582765
1.9999151889582765
1.9999151889582765
1.9999151889582765
1.9999151889582765
1.9999151889582765
1.9999151889582765
1.9999151889582765
1.9999151889582765
1.9999151889582765
1.9999151889582765
1.9999151889582765
1.9999151889582765
1.9999151889582765
1.9999151889582765
1.9999151889582765
1.9999151889582765
1.9999151889582765
1.9999151889582765
1.9999151889582765
1.9999151889582765
1.9999151889582765
1.9999151889582765
1.9999151889582765
1.9999151889582765
1.9999151889582765
1.9999151889582765
1.9999151889582765
1.9999151889582765
1.9999151889582765
1.9999151889582765
1.9999151889582765
1.0044551377697528
1.0023973227048504
1.0044641250880217
1.0033104840667328
1.0044623574071774
1.0040188066140159
1.0044605857728739
1.0043553791851518
1.0044601290664763
1.0044440043339475
1.0044600704252922
1.0044583688918816
1.0044600656439853
1.0044599350359722
1.0044600653628633
1.004460050304502
1.0044600653628633
1.0044599350359722
1.0044600656439853
1.0044583688918816
1.0044600704252922
1.0044440043339475
1.0044601290664763
1.0043553791851518
1.0044605857728739
1.0040188066140159
1.0044623574071774
1.0033104840667328
1.0044641250880217
1.0023973227048504
1.0044551377697528
1.0000453978687025
1.0000829824413975
1.0000852672292557
1.0000829708216783
1.0000839269612416
1.0000829692638864
1.000083271721703
1.0000829705960685
1.0000830500258466
1.0000829710751702
1.0000829858620586
1.0000829711493369
1.0000829730328393
1.0000829711562629
1.0000829713262627
1.0000829711567125
1.0000829711791215
1.0000829711567125
1.0000829713262627
1.0000829711562629
1.0000829730328393
1.0000829711493369
1.0000829858620586
1.0000829710751702
1.0000830500258466
1.0000829705960685
1.000083271721703
1.0000829692638864
1.0000839269612416
1.0000829708216783
1.0000852672292557
1.0000829824413975
1.0000848110417238
1.0028022347209047
1.0010642069669617
1.0028063012563846
1.0019015487085519
1.0028062096955035
1.0025128018400347
1.002805639428767
1.0027469234570512
1.0028055004170591
1.0027977675108493
1.0028054843421501
1.0028047710015022
1.0028054831448474
1.0028054346357111
1.0028054830796638
1.0028054780637807
1.0028054830796638
1.0028054346357111
1.0028054831448474
1.0028047710015022
1.0028054843421501
1.0027977675108493
1.0028055004170591
1.0027469234570512
1.002805639428767
1.0025128018400347
1.0028062096955035
1.0019015487085519
1.0028063012563846
1.0010642069669617
1.0028022347209047
1.0001584362191025
1.0002926234102723
1.0002949525616305
1.000292630835393
1.0002936228397896
1.0002926293151846
1.0002929958120614
1.0002926287629932
1.0002927208943997
1.0002926287185976
1.0002926436606061
1.0002926287193663
1.0002926303586253
1.0002926287197651
1.0002926288486105
1.0002926287198028
1.0002926287348581
1.0002926287198028
1.0002926288486105
1.0002926287197651
1.0002926303586253
1.0002926287193663
1.0002926436606061
1.0002926287185976
1.0002927208943997
1.0002926287629932
1.0002929958120614
1.0002926293151846
1.0002936228397896
1.000292630835393
1.0002949525616305
1.0002926234102723
1.0002959571135133
1.0022661285241503
1.0012441668743608
1.0022672074448817
1.0018449452663918
1.0022672805856752
1.0021593534451416
1.0022671976915274
1.0022495947696055
1.002267178403963
1.002265229855525
1.0022671763228523
1.0022670217219178
1.0022671761768103
1.0022671669829601
1.0022671761693154
1.0022671753263053
1.0022671761693154
1.0022671669829601
1.0022671761768103
1.0022670217219178
1.0022671763228523
1.002265229855525
1.002267178403963
1.0022495947696055
1.0022671976915274
1.0021593534451416
1.0022672805856752
1.0018449452663918
1.0022672074448817
1.0012441668743608
1.0022661285241503
1.0005527786369237
1.0009860578997816
1.0010131374009157
1.0009860617846675
1.0009967868917677
1.0009860617376509
1.0009889340863118
1.0009860615408084
1.0009865785616878
1.00098606150937
1.0009861262275119
1.0009860615068953
1.0009860673758395
1.000986061506774
1.0009860619075996
1.0009860615067723
1.0009860615489976
1.0009860615067723
1.0009860619075996
1.000986061506774
1.0009860673758395
1.0009860615068953
1.0009861262275119
1.00098606150937
1.0009865785616878
1.0009860615408084
1.0009889340863118
1.0009860617376509
1.0009967868917677
1.0009860617846675
1.0010131374009157
1.0009860578997816
1.001032231036755
1.0025175135442919
1.0022223410640674
1.0025176919107726
1.0024232321165449
1.0025177127833036
1.002499286244654
1.0025177065038051
1.0025154176573812
1.0025177049312837
1.0025175153672423
1.0025177047641352
1.0025176940467582
1.0025177047528011
1.0025177043479614
1.0025177047522473
1.0025177047351275
1.0025177047522473
1.0025177043479614
1.0025177047528011
1.0025176940467582
1.0025177047641352
1.0025175153672423
1.0025177049312837
1.0025154176573812
1.0025177065038051
1.002499286244654
1.0025177127833036
1.0024232321165449
1.0025176919107726
1.0022223410640674
1.0025175135442919
1.0019267346633276
1.0034482593190104
1.0035355246376196
1.0034482689812914
1.0034830705084528
1.0034482693329052
1.0034575446049856
1.0034482687136883
1.0034499252418454
1.0034482685836978
1.0034484745378414
1.0034482685706529
1.0034482871547186
1.0034482685697905
1.0034482698346598
1.0034482685697479
1.0034482687026998
1.0034482685697479
1.0034482698346598
1.0034482685697905
1.0034482871547186
1.0034482685706529
1.0034484745378414
1.0034482685836978
1.0034499252418454
1.0034482687136883
1.0034575446049856
1.0034482693329052
1.0034830705084528
1.0034482689812914
1.0035355246376196
1.0034482593190104
1.0035936025814203
1.0066250727145694
1.0066942000427292
1.0066251120119203
1.0066624292218707
1.0066251151032914
1.0066371089077313
1.0066251132829889
1.0066274977731267
1.0066251128640862
1.0066254285882901
1.0066251128206714
1.0066251424260702
1.0066251128177683
1.0066251148823764
1.0066251128176242
1.0066251130380566
1.0066251128176242
1.0066251148823764
1.0066251128177683
1.0066251424260702
1.0066251128206714
1.0066254285882901
1.0066251128640862
1.0066274977731267
1.0066251132829889
1.0066371089077313
1.0066251151032914
1.0066624292218707
1.0066251120119203
1.0066942000427292
1.0066250727145694
1.006692850924285
1.012104474929336
1.0123137093625161
1.0121045245325999
1.0121917507898033
1.0121045239142401
1.0121287080148156
1.0121045195978433
1.0121089628012041
1.0121045187163737
1.01210508173323
1.0121045186275561
1.0121045700625291
1.0121045186216342
1.0121045221495366
1.0121045186213413
1.0121045189937992
1.0121045186213413
1.0121045221495366
1.0121045186216342
1.0121045700625291
1.0121045186275561
1.01210508173323
1.0121045187163737
1.0121089628012041
1.0121045195978433
1.0121287080148156
1.0121045239142401
1.0121917507898033
1.0121045245325999
1.0123137093625161
1.012104474929336
1.0124316508531859
1.0225459662911718
1.0228385845678309
1.0225460708610374
1.0226727014223453
1.0225460660971974
1.0225822231371369
1.0225460557506554
1.0225528211996067
1.0225460536755411
1.0225469198505932
1.0225460534668889
1.0225461330049186
1.0225460534529764
1.022546058917809
1.0225460534522843
1.0225460540288938
1.0225460534522843
1.022546058917809
1.0225460534529764
1.0225461330049186
1.0225460534668889
1.0225469198505932
1.0225460536755411
1.0225528211996067
1.0225460557506554
1.0225822231371369
1.0225460660971974
1.0226727014223453
1.0225460708610374
1.0228385845678309
1.0225459662911718
1.0229773699100257
1.0414770180266917
1.0418937300105588
1.0414772215329473
1.0416585065895274
1.0414772025917243
1.0415295000222955
1.0414771795330895
1.0414870282825386
1.0414771750432703
1.0414784382376077
1.0414771745957325
1.0414772903648102
1.0414771745660241
1.0414771824821265
1.041477174564547
1.0414771753941241
1.041477174564547
1.0414771824821265
1.0414771745660241
1.0414772903648102
1.0414771745957325
1.0414784382376077
1.0414771750432703
1.0414870282825386
1.0414771795330895
1.0415295000222955
1.0414772025917243
1.0416585065895274
1.0414772215329473
1.0418937300105588
1.0414770180266917
1.0420877279156189
1.0750457433327969
1.0755976651188912
1.0750461155017497
1.0752894345683137
1.0750460608471841
1.0751171612985566
1.0750460138607623
1.0750594512225371
1.0750460050242894
1.075047721256557
1.0750460041562633
1.0750461599341647
1.075046004099254
1.0750460146078609
1.0750460040964533
1.0750460051801025
1.0750460040964533
1.0750460146078609
1.075046004099254
1.0750461599341647
1.0750460041562633
1.075047721256557
1.0750460050242894
1.0750594512225371
1.0750460138607623
1.0751171612985566
1.0750460608471841
1.0752894345683137
1.0750461155017497
1.0755976651188912
1.0750457433327969
1.0758581800212434
1.1318412047903523
1.1325461333864426
1.1318418307945048
1.1321543619624848
1.1318416993362119
1.1319333382223218
1.1318416124229123
1.1318587922423688
1.1318415968146565
1.1318437537278792
1.131841595320926
1.131841786543998
1.131841595224915
1.1318416077647515
1.1318415952202916
1.1318415964732955
1.1318415952202916
1.1318416077647515
1.131841595224915
1.131841786543998
1.131841595320926
1.1318437537278792
1.1318415968146565
1.1318587922423688
1.1318416124229123
1.1319333382223218
1.1318416993362119
1.1321543619624848
1.1318418307945048
1.1325461333864426
1.1318412047903523
1.1329642401978293
1.2210625547171694
1.2219211819983253
1.2210634955289226
1.2214457791509528
1.2210632302714364
1.2211746639012735
1.2210630873329695
1.2210835164341882
1.2210630630903239
1.2210655407283013
1.2210630608616746
1.2210632712157214
1.2210630607236073
1.2210630738475712
1.2210630607172124
1.2210630619594776
1.2210630607172124
1.2210630738475712
1.2210630607236073
1.2210632712157214
1.2210630608616746
1.2210655407283013
1.2210630630903239
1.2210835164341882
1.2210630873329695
1.2211746639012735
1.2210632302714364
1.2214457791509528
1.2210634955289226
1.2219211819983253
1.2210625547171694
1.2227001388253087
1.3462154479725645
1.3472018917726438
1.3462166842452676
1.3466607557064476
1.3462162406663991
1.3463434773085474
1.3462160364321294
1.3462383774682389
1.3462160042229083
1.3462185572138334
1.3462160014456694
1.3462162036029968
1.3462160012842588
1.3462160129674812
1.3462160012772706
1.3462160022978278
1.3462160012772706
1.3462160129674812
1.3462160012842588
1.3462162036029968
1.3462160014456694
1.3462185572138334
1.3462160042229083
1.3462383774682389
1.3462160364321294
1.3463434773085474
1.3462162406663991
1.3466607557064476
1.3462166842452676
1.3472018917726438
1.3462154479725645
1.3486451353339457
1.4966452130103494
1.4977237119163149
1.4966466115908357
1.4971359543355287
1.49664602536061
1.4967799248940781
1.496645787166393
1.4966676122663483
1.4966457531444113
1.4966480387855032
1.4966457504744846
1.4966459153380054
1.4966457503328394
1.496645758984712
1.4966457503272423
1.496645751013056
1.4966457503272423
1.496645758984712
1.4966457503328394
1.4966459153380054
1.4966457504744846
1.4966480387855032
1.4966457531444113
1.4966676122663483
1.496645787166393
1.4967799248940781
1.49664602536061
1.4971359543355287
1.4966466115908357
1.4977237119163149
1.4966452130103494
1.5
1.6473609604971944
1.6484993477722421
1.6473622674711548
1.647860775005723
1.6473617038641168
1.6474867086611062
1.6473614961858871
1.6473799292365752
1.6473614696232239