# vtk DataFile Version 3.0
Euler density step 582
ASCII
DATASET STRUCTURED_POINTS
DIMENSIONS 32 32 32
ORIGIN 0 0 0
SPACING 0.3125 0.3125 0.3125
POINT_DATA 32768
SCALARS density double 1
LOOKUP_TABLE default
1.0089320450795762
1.0017729653232883
1.0089725039774045
1.003540731452385
1.0089885056064407
1.0048900082464713
1.0089901022555536
1.0059413039958491
1.0089882617818817
1.0069356853663274
1.0089833790043035
1.0078875106833582
1.0089780523177767
1.0085181191327381
1.0089754868529737
1.008721750146343
1.0089754868529737
1.0085181191327381
1.0089780523177767
1.0078875106833582
1.0089833790043035
1.0069356853663274
1.0089882617818817
1.0059413039958491
1.0089901022555536
1.0048900082464713
1.0089885056064407
1.003540731452385
1.0089725039774045
1.0017729653232883
1.0089320450795762
1.0000453978687025
0.99961383922340197
0.99996107905012177
0.99961363620240906
0.99984474317962457
0.99961357613217316
0.99974898978739757
0.99961359038241648
0.99968075970751713
0.99961360989140213
0.99964140306520066
0.99961362563954914
0.99962335847065997
0.99961363901332967
0.99961667782555874
0.99961364591710211
0.99961509436248197
0.99961364591710211
0.99961667782555874
0.99961363901332967
0.99962335847065997
0.99961362563954914
0.99964140306520066
0.99961360989140213
0.99968075970751713
0.99961359038241648
0.99974898978739757
0.99961357613217316
0.99984474317962457
0.99961363620240906
0.99996107905012177
0.99961383922340197
1.0000848110417238
1.0081699613639878
1.0018655902604059
1.0081941630783564
1.003243763769522
1.0082088379785437
1.0044213852953712
1.0082127322735217
1.0053881150539821
1.0082127349344805
1.0063377254700638
1.0082089421654514
1.0072394669069622
1.0082046162513725
1.0078161141110402
1.0082026311765688
1.0079967342121081
1.0082026311765688
1.0078161141110402
1.0082046162513725
1.0072394669069622
1.0082089421654514
1.0063377254700638
1.0082127349344805
1.0053881150539821
1.0082127322735217
1.0044213852953712
1.0082088379785437
1.003243763769522
1.0081941630783564
1.0018655902604059
1.0081699613639878
1.0001584362191025
0.99927085792792192
1.000040026561446
0.99927092493723157
0.99980087671800144
0.9992709743365773
0.99959564730168526
0.99927100140783698
0.99943996091752407
0.99927099781291662
0.99934326205959489
0.99927099725122159
0.99929613273053852
0.99927100574395533
0.99927836652069968
0.99927101154870801
0.99927423701644424
0.99927101154870801
0.99927836652069968
0.99927100574395533
0.99929613273053852
0.99927099725122159
0.99934326205959489
0.99927099781291662
0.99943996091752407
0.99927100140783698
0.99959564730168526
0.9992709743365773
0.99980087671800144
0.99927092493723157
1.000040026561446
0.99927085792792192
1.0002959571135133
1.0067208679224662
1.0016837272687376
1.0067332641317646
1.0027138331322312
1.0067432197528143
1.003616885389877
1.0067479176902525
1.0043646385168081
1.0067491048974189
1.0052147601954344
1.0067464257868288
1.0060117622843554
1.0067436106970364
1.0064772472260717
1.0067424805792666
1.0066125503840933
1.0067424805792666
1.0064772472260717
1.0067436106970364
1.0060117622843554
1.0067464257868288
1.0052147601954344
1.0067491048974189
1.0043646385168081
1.0067479176902525
1.003616885389877
1.0067432197528143
1.0027138331322312
1.0067332641317646
1.0016837272687376
1.0067208679224662
1.0005527786369237
0.99933475863936549
1.0006410278471898
0.99933512247973155
1.0002692091841203
0.99933547136244316
0.99993864627116336
0.99933562445268465
0.99966927982907638
0.99933560702736501
0.99948548779424873
0.99933556035132709
0.99938875629517576
0.99933554127529112
0.99935090334508725
0.99933553761132854
0.99934206095118105
0.99933553761132854
0.99935090334508725
0.99933554127529112
0.99938875629517576
0.99933556035132709
0.99948548779424873
0.99933560702736501
0.99966927982907638
0.99933562445268465
0.99993864627116336
0.99933547136244316
1.0002692091841203
0.99933512247973155
1.0006410278471898
0.99933475863936549
1.001032231036755
1.0061655600017048
1.0025930109394081
1.006171628328715
1.0032390924135961
1.0061776551003243
1.0038049594439931
1.0061818071379498
1.0044304990869857
1.0061826756139991
1.0051813997575476
1.0061810876937056
1.0057669985912285
1.0061798033071354
1.0060507313721283
1.0061793727252961
1.0061235003982589
1.0061793727252961
1.0060507313721283
1.0061798033071354
1.0057669985912285
1.0061810876937056
1.0051813997575476
1.0061826756139991
1.0044304990869857
1.0061818071379498
1.0038049594439931
1.0061776551003243
1.0032390924135961
1.006171628328715
1.0025930109394081
1.0061655600017048
1.0019267346633276
1.0011807332615652
1.0030821327383368
1.0011815448615755
1.0025858321875498
1.0011823824002748
1.0021355978731381
1.001182782985488
1.0017461476167095
1.0011827438813417
1.0014532380317489
1.0011825874339904
1.0012840711305586
1.0011825046129272
1.0012131229418726
1.0011824820259436
1.0011958646981802
1.0011824820259436
1.0012131229418726
1.0011825046129272
1.0012840711305586
1.0011825874339904
1.0014532380317489
1.0011827438813417
1.0017461476167095
1.001182782985488
1.0021355978731381
1.0011823824002748
1.0025858321875498
1.0011815448615755
1.0030821327383368
1.0011807332615652
1.0035936025814203
1.0094155317271905
1.0071567130884973
1.0094190304289685
1.0076174672017655
1.0094231919069376
1.0080992689927293
1.0094260232532051
1.00864149093261
1.0094264113811391
1.00909243202292
1.0094257398985629
1.0093275520731411
1.0094253032302181
1.0094055862216269
1.0094251734434567
1.0094202587881884
1.0094251734434567
1.0094055862216269
1.0094253032302181
1.0093275520731411
1.0094257398985629
1.00909243202292
1.0094264113811391
1.00864149093261
1.0094260232532051
1.0080992689927293
1.0094231919069376
1.0076174672017655
1.0094190304289685
1.0071567130884973
1.0094155317271905
1.006692850924285
1.0093179212076817
1.0118129836210144
1.0093197381515846
1.0111970952614198
1.0093213934203773
1.0106443645721168
1.0093221201521718
1.0101519228020235
1.0093219817799528
1.009747464178169
1.0093215781042117
1.0094908809181955
1.0093213501793081
1.0093750787626838
1.0093212840108987
1.0093456242370069
1.0093212840108987
1.0093750787626838
1.0093213501793081
1.0094908809181955
1.0093215781042117
1.009747464178169
1.0093219817799528
1.0101519228020235
1.0093221201521718
1.0106443645721168
1.0093213934203773
1.0111970952614198
1.0093197381515846
1.0118129836210144
1.0093179212076817
1.0124316508531859
1.0236331376743686
1.0232447510966474
1.0236366708698534
1.0234702953166597
1.0236400991095285
1.0237178627910686
1.0236418428177163
1.0238876624771609
1.0236418718675129
1.0238737651049148
1.0236413033760157
1.0237681995622001
1.0236409480241766
1.0236897403633669
1.0236408390812266
1.0236654214676293
1.0236408390812266
1.0236897403633669
1.0236409480241766
1.0237681995622001
1.0236413033760157
1.0238737651049148
1.0236418718675129
1.0238876624771609
1.0236418428177163
1.0237178627910686
1.0236400991095285
1.0234702953166597
1.0236366708698534
1.0232447510966474
1.0236331376743686
1.0229773699100257
1.0380846422643681
1.0413050506892845
1.0380891117954674
1.0404884796636567
1.0380920873872055
1.0397999714464066
1.0380930112702755
1.0392018999723047
1.0380925438020963
1.0386861536831016
1.0380916677267853
1.0383369284614719
1.0380911686374019
1.0381713482866055
1.0380910196703954
1.0381280391606835
1.0380910196703954
1.0381713482866055
1.0380911686374019
1.0383369284614719
1.0380916677267853
1.0386861536831016
1.0380925438020963
1.0392018999723047
1.0380930112702755
1.0397999714464066
1.0380920873872055
1.0404884796636567
1.0380891117954674
1.0413050506892845
1.0380846422643681
1.0420877279156189
1.0735497111207639
1.0755893757146899
1.0735571264591266
1.0751873088028792
1.0735611251291517
1.0748908261697629
1.0735621387810854
1.0745649951804348
1.0735614660814412
1.0741584072556789
1.0735603025883322
1.0738224732526442
1.0735596332486408
1.0736482107218943
1.0735594313087009
1.0736009309429622
1.0735594313087009
1.0736482107218943
1.0735596332486408
1.0738224732526442
1.0735603025883322
1.0741584072556789
1.0735614660814412
1.0745649951804348
1.0735621387810854
1.0748908261697629
1.0735611251291517
1.0751873088028792
1.0735571264591266
1.0755893757146899
1.0735497111207639
1.0758581800212434
1.1275223010495166
1.1318871460835502
1.1275350190363418
1.1306305101017891
1.1275395577151857
1.1296998822059989
1.1275398814272266
1.1289533193865022
1.1275385027785283
1.1283053075984781
1.1275368138135426
1.1278550819005719
1.1275359092720454
1.1276392177317673
1.1275356457220571
1.1275827551337987
1.1275356457220571
1.1276392177317673
1.1275359092720454
1.1278550819005719
1.1275368138135426
1.1283053075984781
1.1275385027785283
1.1289533193865022
1.1275398814272266
1.1296998822059989
1.1275395577151857
1.1306305101017891
1.1275350190363418
1.1318871460835502
1.1275223010495166
1.1329642401978293
1.2172903901843279
1.2217189753998581
1.2173111647940178
1.2204256856388505
1.2173156731796064
1.219548511314873
1.217315063331365
1.2188311318930705
1.2173129481094023
1.2181522917544416
1.2173107224860604
1.2176591732836486
1.217309583196557
1.2174210128464078
1.2173092615645666
1.2173591042828977
1.2173092615645666
1.2174210128464078
1.217309583196557
1.2176591732836486
1.2173107224860604
1.2181522917544416
1.2173129481094023
1.2188311318930705
1.217315063331365
1.219548511314873
1.2173156731796064
1.2204256856388505
1.2173111647940178
1.2217189753998581
1.2172903901843279
1.2227001388253087
1.3411695348952375
1.3468154671040928
1.341200063311049
1.345017758971538
1.3412035477350297
1.3438482038583983
1.3412015226934122
1.3429540464997169
1.3411983984032407
1.3421460898926973
1.341195508054039
1.3415775721034822
1.3411941239593614
1.341311770557533
1.341193753681986
1.3412445065060308
1.341193753681986
1.341311770557533
1.3411941239593614
1.3415775721034822
1.341195508054039
1.3421460898926973
1.3411983984032407
1.3429540464997169
1.3412015226934122
1.3438482038583983
1.3412035477350297
1.345017758971538
1.341200063311049
1.3468154671040928
1.3411695348952375
1.3486451353339457
1.4911744265818907
1.4967653104165546
1.4912119329144009
1.4950885364324569
1.4912130013067382
1.494000823939891
1.4912094789179027
1.493107276780737
1.4912053653142379
1.492228847891971
1.4912018492650685
1.4916036870541125
1.4912002767554335
1.491318728352812
1.4911998822637993
1.4912487350780785
1.4911998822637993
1.491318728352812
1.4912002767554335
1.4916036870541125
1.4912018492650685
1.492228847891971
1.4912053653142379
1.493107276780737
1.4912094789179027
1.494000823939891
1.4912130013067382
1.4950885364324569
1.4912119329144009
1.4967653104165546
1.4911744265818907
1.5
1.6398507546411882
1.645487269058469
1.6398916820606249
1.6439274480437647
1.6398905481875112
1.6428599887784041
1.6398860072224244
1.6419234485029843
1.6398810642497708
1.6409577181761199
1.6398770770410684
1.6402824154276179
1.6398754305634027
1.639988186597422
1.639875048757331
1.6399189623951635
1.639875048757331
1.639988186597422
1.6398754305634027
1.6402824154276179
1.6398770770410684
1.6409577181761199
1.6398810642497708
1.6419234485029843
1.6398860072224244
1.6428599887784041
1.6398905481875112
1.6439274480437647
1.6398916820606249
1.645487269058469
1.6398507546411882
1.6513548646660543
1.7647512082233627
1.7699291265876906
1.7647897754781667
1.7687308476880574
1.7647890233763499
1.7678237096327136
1.7647847771971434
1.7668924549035812
1.7647794674173292
1.7658598106867782
1.7647753500266659
1.7651603587220375
1.7647737970051798
1.7648737224806819
1.7647734677658784
1.7648098822257294
1.7647734677658784
1.7648737224806819
1.7647737970051798
1.7651603587220375
1.7647753500266659
1.7658598106867782
1.7647794674173292
1.7668924549035812
1.7647847771971434
1.7678237096327136
1.7647890233763499
1.7687308476880574
1.7647897754781667
1.7699291265876906
1.7647512082233627
1.7772998611746911
1.8543062364685678
1.8596949701407066
1.8543406796332611
1.8584276216770814
1.8543422971644883
1.8574907704158152
1.854339075306455
1.8564678647363899
1.8543337815362519
1.855362902337093
1.8543299391148562
1.8546713182253109
1.8543286355042892
1.8544105663089065
1.8543283845223635
1.854356185376975
1.8543283845223635
1.8544105663089065
1.8543286355042892
1.8546713182253109
1.8543299391148562
1.855362902337093
1.8543337815362519
1.8564678647363899
1.854339075306455
1.8574907704158152
1.8543422971644883
1.8584276216770814
1.8543406796332611
1.8596949701407066
1.8543062364685678
1.8670357598021707
1.914056640977857
1.918652318222057
1.9140842758892396
1.9177871177909642
1.9140880934741462
1.9171090755495424
1.9140861589148346
1.9160908402769135
1.9140814418378089
1.9149906721423435
1.9140782784448604
1.9143581363843905
1.9140773132306073
1.914139475605831
1.9140771438037734
1.9140968280044808
1.9140771438037734
1.914139475605831
1.9140773132306073
1.9143581363843905
1.9140782784448604
1.9149906721423435
1.9140814418378089
1.9160908402769135
1.9140861589148346
1.9171090755495424
1.9140880934741462
1.9177871177909642
1.9140842758892396
1.918652318222057
1.914056640977857
1.9241418199787566
1.948127897341269
1.9535036842427715
1.9481494227804974
1.9522608606220768
1.948154412224349
1.9512523408224884
1.9481531286885343
1.9500058978236083
1.9481491868294449
1.9489113084866558
1.9481468446816952
1.9483622653771628
1.9481462054397045
1.9481904978283215
1.9481461027485487
1.9481592400806833
1.9481461027485487
1.9481904978283215
1.9481462054397045
1.9483622653771628
1.9481468446816952
1.9489113084866558
1.9481491868294449
1.9500058978236083
1.9481531286885343
1.9512523408224884
1.948154412224349
1.9522608606220768
1.9481494227804974
1.9535036842427715
1.948127897341269
1.9579122720843811
1.9715364235831818
1.974704992173657
1.9715510567339805
1.9743057724542374
1.9715563355394599
1.9738600521491094
1.971555941095678
1.9729466621722298
1.9715532862639635
1.9721047744207403
1.9715518128957761
1.9717001963939937
1.9715514408622083
1.9715803957766072
1.9715513848831123
1.9715595729580098
1.9715513848831123
1.9715803957766072
1.9715514408622083
1.9717001963939937
1.9715518128957761
1.9721047744207403
1.9715532862639635
1.9729466621722298
1.971555941095678
1.9738600521491094
1.9715563355394599
1.9743057724542374
1.9715510567339805
1.974704992173657
1.9715364235831818
1.9770226300899743
1.9802728268307996
1.9851874725244831
1.980282953617712
1.9839647629428374
1.9802871745176709
1.9827597925856335
1.9802867346302353
1.9815281558215248
1.98028486540862
1.9807171235445231
1.980283967759864
1.980389852014047
1.9802837640191251
1.9803029646688175
1.9802837356574012
1.980288866715737
1.9802837356574012
1.9803029646688175
1.9802837640191251
1.980389852014047
1.980283967759864
1.9807171235445231
1.98028486540862
1.9815281558215248
1.9802867346302353
1.9827597925856335
1.9802871745176709
1.9839647629428374
1.980282953617712
1.9851874725244831
1.9802728268307996
1.9875683491468141
1.9913596557217947
1.9924291795729943
1.9913674575825218
1.9921896444112377
1.9913720106976043
1.9920358520995503
1.9913722096531896
1.9917741700018545
1.9913711650514585
1.9915299525045718
1.9913706702751899
1.9914127871390619
1.9913705601305223
1.9913785991462836
1.9913705449296817
1.9913727627326931
1.9913705449296817
1.9913785991462836
1.9913705601305223
1.9914127871390619
1.9913706702751899
1.9915299525045718
1.9913711650514585
1.9917741700018545
1.9913722096531896
1.9920358520995503
1.9913720106976043
1.9921896444112377
1.9913674575825218
1.9924291795729943
1.9913596557217947
1.993307149075715
1.9912325303359701
1.9949102606355187
1.991236456269819
1.9937923823486099
1.9912384939730838
1.9927356736288273
1.9912383896367709
1.9918879458601009
1.9912378291164674
1.9914376206391184
1.9912376032357344
1.9912818610729592
1.9912375589823093
1.9912449392797487
1.9912375534989619
1.9912393976301792
1.9912375534989619
1.9912449392797487
1.9912375589823093
1.9912818610729592
1.9912376032357344
1.9914376206391184
1.9912378291164674
1.9918879458601009
1.9912383896367709
1.9927356736288273
1.9912384939730838
1.9937923823486099
1.991236456269819
1.9949102606355187
1.9912325303359701
1.9964063974185799
1.9987008557139887
1.9978682854309981
1.9987097420302828
1.9977054405301715
1.9987145833047419
1.99772688290067
1.9987145726960458
1.9981373607220785
1.9987130924633749
1.9985076177349157
1.9987123998080201
1.9986639661703995
1.9987122469886385
1.9987040555964655
1.9987122259940715
1.99871020915384
1.9987122259940715
1.9987040555964655
1.9987122469886385
1.9986639661703995
1.9987123998080201
1.9985076177349157
1.9987130924633749
1.9981373607220785
1.9987145726960458
1.99772688290067
1.9987145833047419
1.9977054405301715
1.9987097420302828
1.9978682854309981
1.9987008557139887
1.9980732653366724
1.9959407762748134
1.9980670839980426
1.9959419793033946
1.9972901681858044
1.9959426052418319
1.9966431989010924
1.9959425897335124
1.9962195378640817
1.9959424945747135
1.9960232810709972
1.9959424703826161
1.9959599485404926
1.9959424686291845
1.9959453660920969
1.9959424688148828
1.9959431950155651
1.9959424688148828
1.9959453660920969
1.9959424686291845
1.9959599485404926
1.9959424703826161
1.9960232810709972
1.9959424945747135
1.9962195378640817
1.9959425897335124
1.9966431989010924
1.9959426052418319
1.9972901681858044
1.9959419793033946
1.9980670839980426
1.9959407762748134
1.9989677689632452
2.00309241063534
2.0003165338943969
2.0031138825422463
2.0009034127438659
2.0031183917907991
2.0012463708296053
2.0031167187175125
2.0019275345118799
2.0031131792400263
2.0026269130465755
2.0031113120950561
2.0029794100969718
2.0031108425300936
2.0030853082779303
2.0031107716449954
2.0031036837010614
2.0031107716449954
2.0030853082779303
2.0031108425300936
2.0029794100969718
2.0031113120950561
2.0026269130465755
2.0031131792400263
2.0019275345118799
2.0031167187175125
2.0012463708296053
2.0031183917907991
2.0009034127438659
2.0031138825422463
2.0003165338943969
2.00309241063534
1.9994472213630763
1.9984503873041526
1.9993435871700305
1.9984503158685918
1.9989852567875412
1.9984504570708037
1.9987057333294154
1.9984505026899695
1.9985454239954583
1.998450523317703
1.9984782486825352
1.9984505415572993
1.9984569192137029
1.9984505488462501
1.9984517191431368
1.9984505504102383
1.9984508780111867
1.9984505504102383
1.9984517191431368
1.9984505488462501
1.9984569192137029
1.9984505415572993
1.9984782486825352
1.998450523317703
1.9985454239954583
1.9984505026899695
1.9987057333294154
1.9984504570708037
1.9989852567875412
1.9984503158685918
1.9993435871700305
1.9984503873041526
1.999704042886487
2.0061934551215339
2.0019900397100239
2.0062377730399734
2.003179476261256
2.0062327898535282
2.0039239078164957
2.0062260902470679
2.0047797728300072
2.0062201684380345
2.0055969654097248
2.0062171274273517
2.0060351050700627
2.006216297745314
2.006178107912707
2.0062161607558808
2.006204745140348
2.0062161607558808
2.006178107912707
2.006216297745314
2.0060351050700627
2.0062171274273517
2.0055969654097248
2.0062201684380345
2.0047797728300072
2.0062260902470679
2.0039239078164957
2.0062327898535282
2.003179476261256
2.0062377730399734
2.0019900397100239
2.0061934551215339
1.9998415637808975
1.9999151889582765
1.9999151889582765
1.9999151889582765
1.9999151889582765
1.9999151889582765
1.9999151889582765
1.9999151889582765
1.9999151889582765
1.9999151889582765
1.9999151889582765
1.9999151889582765
1.9999151889582765
1.9999151889582765
1.9999151889582765
1.9999151889582765
1.9999151889582765
1.9999151889582765
1.9999151889582765
1.9999151889582765
1.9999151889582765
1.9999151889582765
1.9999151889582765
1.9999151889582765
1.9999151889582765
1.9999151889582765
1.9999151889582765
1.9999151889582765
1.9999151889582765
1.9999151889582765
1.9999151889582765
1.9999151889582765
1.9999151889582765
1.0017211761898173
1.0009201959933187
1.0017453602662592
1.0012511899733259
1.0017475317809117
1.0013265595406675
1.0017447753097111
1.0012981753686299
1.0017433035593999
1.0012331054634034
1.0017425858087703
1.0013208250481915
1.0017410161869433
1.0014942195421339
1.0017398649394154
1.0015741204186008
1.0017398649394154
1.0014942195421339
1.0017410161869433
1.0013208250481915
1.0017425858087703
1.0012331054634034
1.0017433035593999
1.0012981753686299
1.0017447753097111
1.0013265595406675
1.0017475317809117
1.0012511899733259
1.0017453602662592
1.0009201959933187
1.0017211761898173
1.0000453978687025
0.99993309321911616
1.0000625115884363
0.99993290127800039
1.0000283777628849
0.99993286770177137
0.99999638704127802
0.99993289168944355
0.99996883358226707
0.99993291308319199
0.99994941436181073
0.99993292396852829
0.99993908779951435
0.99993293063072397
0.99993494042560915
0.99993293416785767
0.99993392539312675
0.99993293416785767
0.99993494042560915
0.99993293063072397
0.99993908779951435
0.99993292396852829
0.99994941436181073
0.99993291308319199
0.99996883358226707
0.99993289168944355
0.99999638704127802
0.99993286770177137
1.0000283777628849
0.99993290127800039
1.0000625115884363
0.99993309321911616
1.0000848110417238
1.0008773657397412
1.0004495726578928
1.0008889323495622
1.0005110065688956
1.0008931397065561
1.0004984409550113
1.0008925467737073
1.0004496987404834
1.0008922960862252
1.0003934741510123
1.0008919147682054
1.0004968060925601
1.0008905358158791
1.0006717530620499
1.0008895675793767
1.0007485956461375
1.0008895675793767
1.0006717530620499
1.0008905358158791
1.0004968060925601
1.0008919147682054
1.0003934741510123
1.0008922960862252
1.0004496987404834
1.0008925467737073
1.0004984409550113
1.0008931397065561
1.0005110065688956
1.0008889323495622
1.0004495726578928
1.0008773657397412
1.0001584362191025
1.0000294088505661
1.0002544419073467
1.0000294533465646
1.0002072915854996
1.0000294703703909
1.0001580417757472
1.0000294868293391
1.0001091359755188
1.000029491150771
1.0000689657079151
1.0000294885881971
1.0000448211073862
1.0000294888884285
1.0000343913774421
1.0000294903449387
1.0000317796329499
1.0000294903449387
1.0000343913774421
1.0000294888884285
1.0000448211073862
1.0000294885881971
1.0000689657079151
1.000029491150771
1.0001091359755188
1.0000294868293391
1.0001580417757472
1.0000294703703909
1.0002072915854996
1.0000294533465646
1.0002544419073467
1.0000294088505661
1.0002959571135133
1.0009180582730164
1.0006088639105044
1.0009227671331493
1.0005928932133801
1.0009256271365123
1.0006077970494751
1.0009260383203522
1.0005183980629013
1.0009267783698383
1.0004533926903598
1.0009264691747757
1.0005838246038556
1.000925342948165
1.0007577095804032
1.0009246835609504
1.0008261763181825
1.0009246835609504
1.0007577095804032
1.000925342948165
1.0005838246038556
1.0009264691747757
1.0004533926903598
1.0009267783698383
1.0005183980629013
1.0009260383203522
1.0006077970494751
1.0009256271365123
1.0005928932133801
1.0009227671331493
1.0006088639105044
1.0009180582730164
1.0005527786369237
1.0007304144968396
1.0010063666953042
1.0007305365111208
1.0009681500977776
1.000730638105036
1.0009217859797073
1.0007306980434203
1.0008634535409162
1.0007307000624341
1.0008038502079741
1.000730677002299
1.0007615660048217
1.000730663154924
1.0007410816803375
1.0007306593361227
1.0007356280893405
1.0007306593361227
1.0007410816803375
1.000730663154924
1.0007615660048217
1.000730677002299
1.0008038502079741
1.0007307000624341
1.0008634535409162
1.0007306980434203
1.0009217859797073
1.000730638105036
1.0009681500977776
1.0007305365111208
1.0010063666953042
1.0007304144968396
1.001032231036755
1.0021070994055661
1.0019089180751286
1.0021090234445058
1.0018690059993418
1.0021103623807459
1.0017959667515213
1.0021113313725272
1.0016617682458009
1.0021120522410309
1.0016919094838783
1.0021116061173787
1.0018701398501311
1.0021109052496613
1.0020146548611448
1.0021105902053067
1.0020614629359399
1.0021105902053067
1.0020146548611448
1.0021109052496613
1.0018701398501311
1.0021116061173787
1.0016919094838783
1.0021120522410309
1.0016617682458009
1.0021113313725272
1.0017959667515213
1.0021103623807459
1.0018690059993418
1.0021090234445058
1.0019089180751286
1.0021070994055661
1.0019267346633276
1.0033454075331283
1.0036074985753023
1.003345597614274
1.0035913646855474
1.0033457727449799
1.0035655871988254
1.0033458888638427
1.0035219187328484
1.0033458974144474
1.0034580430322935
1.0033458419867693
1.0033991423406232
1.0033458012834928
1.0033654821134219
1.0033457874110765
1.0033557102429973
1.0033457874110765
1.0033654821134219
1.0033458012834928
1.0033991423406232
1.0033458419867693
1.0034580430322935
1.0033458974144474
1.0035219187328484
1.0033458888638427
1.0035655871988254
1.0033457727449799
1.0035913646855474
1.003345597614274
1.0036074985753023
1.0033454075331283
1.0035936025814203
1.0071285113647557
1.006688711724101
1.0071293790666644
1.0066573154241505
1.0071302840294787
1.0066328785267484
1.0071312684655664
1.0067008376921904
1.0071316035626354
1.0068784635503931
1.0071312813923561
1.007032441313471
1.0071309773976611
1.0071039897726533
1.0071308660407561
1.0071210524107808
1.0071308660407561
1.0071039897726533
1.0071309773976611
1.007032441313471
1.0071312813923561
1.0068784635503931
1.0071316035626354
1.0067008376921904
1.0071312684655664
1.0066328785267484
1.0071302840294787
1.0066573154241505
1.0071293790666644
1.006688711724101
1.0071285113647557
1.006692850924285
1.0123232021849231
1.0125208134989738
1.0123235939890403
1.012524304778724
1.0123238561568551
1.0125271790311026
1.0123240027413274
1.0125181728894421
1.0123240178821866
1.0124692227893499
1.0123239142124376
1.012401507739948
1.0123238250186928
1.0123550612259322
1.0123237911562228
1.0123403994203648
1.0123237911562228
1.0123550612259322
1.0123238250186928
1.012401507739948
1.0123239142124376
1.0124692227893499
1.0123240178821866
1.0125181728894421
1.0123240027413274
1.0125271790311026
1.0123238561568551
1.012524304778724
1.0123235939890403
1.0125208134989738
1.0123232021849231
1.0124316508531859
1.0239792919125457
1.0232247383936066
1.0239801058377112
1.0233455093533044
1.0239808823292988
1.0235211613400328
1.0239814829411655
1.0237593424430405
1.0239816197063181
1.0239404951778905
1.0239814357432417
1.0240011640896114
1.0239812710242366
1.0239999413374377
1.023981208539033
1.0239942570549903
1.023981208539033
1.0239999413374377
1.0239812710242366
1.0240011640896114
1.0239814357432417
1.0239404951778905
1.0239816197063181
1.0237593424430405
1.0239814829411655
1.0235211613400328
1.0239808823292988
1.0233455093533044
1.0239801058377112
1.0232247383936066
1.0239792919125457
1.0229773699100257
1.0421580498289973
1.0423375467700187
1.0421590854698697
1.0423194251550245
1.0421594343046374
1.042331322514507
1.0421595103823253
1.0423513517570906
1.0421595032785806
1.0423243499367487
1.0421593402494826
1.0422559886603286
1.042159185783923
1.042200600563336
1.0421591227164495
1.0421819318177901
1.0421591227164495
1.042200600563336
1.042159185783923
1.0422559886603286
1.0421593402494826
1.0423243499367487
1.0421595032785806
1.0423513517570906
1.0421595103823253
1.042331322514507
1.0421594343046374
1.0423194251550245
1.0421590854698697
1.0423375467700187
1.0421580498289973
1.0420877279156189
1.0769618032636077
1.0764295833226687
1.0769635925428049
1.076555275094452
1.0769640797637543
1.0767571506214122
1.0769642024098109
1.0769651107073965
1.0769642130820227
1.0770632483293678
1.0769640235293791
1.0770467232784973
1.0769638346139936
1.0770041773677863
1.0769637556399134
1.0769871121914827
1.0769637556399134
1.0770041773677863
1.0769638346139936
1.0770467232784973
1.0769640235293791
1.0770632483293678
1.0769642130820227
1.0769651107073965
1.0769642024098109
1.0767571506214122
1.0769640797637543
1.076555275094452
1.0769635925428049
1.0764295833226687
1.0769618032636077
1.0758581800212434
1.1331988613161041
1.1334787299820981
1.1332019986572002
1.1333413641538013
1.1332020400713327
1.1333360587943213
1.133201790050109
1.1333791214574502
1.1332016984013213
1.1333746518528653
1.1332014725382764
1.1333089536202017
1.1332012553607398
1.1332482471999974
1.1332011646729234
1.1332270781626304
1.1332011646729234
1.1332482471999974
1.1332012553607398
1.1333089536202017
1.1332014725382764
1.1333746518528653
1.1332016984013213
1.1333791214574502
1.133201790050109
1.1333360587943213
1.1332020400713327
1.1333413641538013
1.1332019986572002
1.1334787299820981
1.1331988613161041
1.1329642401978293
1.2232889351944434
1.2231991471080157
1.2232933490620654
1.2231352307956898
1.2232928547368045
1.2232499711084526
1.2232924193631665
1.2233957776306847
1.2232923223876679
1.2234467098557034
1.223292085604109
1.2233972191672753
1.2232918492791454
1.2233384693594622
1.2232917507930563
1.2233172490602291
1.2232917507930563
1.2233384693594622
1.2232918492791454
1.2233972191672753
1.223292085604109
1.2234467098557034
1.2232923223876679
1.2233957776306847
1.2232924193631665
1.2232499711084526
1.2232928547368045
1.2231352307956898
1.2232933490620654
1.2231991471080157
1.2232889351944434
1.2227001388253087
1.347760868844736
1.3479049816455881
1.347765160162854
1.347747781361408
1.3477640633073773
1.3477913288932615
1.3477635083125725
1.3479007871013235
1.3477634396464311
1.3479333248553715
1.3477632048192409
1.3478721394319604
1.3477629627222685
1.3478089016458068
1.3477628640613248
1.3477870045309939
1.3477628640613248
1.3478089016458068
1.3477629627222685
1.3478721394319604
1.3477632048192409
1.3479333248553715
1.3477634396464311
1.3479007871013235
1.3477635083125725
1.3477913288932615
1.3477640633073773
1.347747781361408
1.347765160162854
1.3479049816455881
1.347760868844736
1.3486451353339457
1.4972727317796217
1.4969781312730395
1.4972752551140496
1.4970289015612066
1.4972740102213733
1.4971913582336325
1.4972736165533465
1.497376136084837
1.4972736533175721
1.4974352881452515
1.4972734513639847
1.4973771335910964
1.4972732279554428
1.4973150454909543
1.4972731395984051
1.4972941040382739
1.4972731395984051
1.4973150454909543
1.4972732279554428
1.4973771335910964
1.4972734513639847
1.4974352881452515
1.4972736533175721
1.497376136084837
1.4972736165533465
1.4971913582336325
1.4972740102213733
1.4970289015612066
1.4972752551140496
1.4969781312730395
1.4972727317796217
1.5
1.64666142902018
1.646218575106891
1.6466618097447698