# vtk DataFile Version 3.0
Euler density step 280
ASCII
DATASET STRUCTURED_POINTS
DIMENSIONS 32 32 32
ORIGIN 0 0 0
SPACING 0.3125 0.3125 0.3125
POINT_DATA 32768
SCALARS density double 1
LOOKUP_TABLE default
1.0054443161385782
1.0019997622023351
1.0054525893745638
1.0039361141674732
1.0054515160169502
1.0050151403874954
1.0054503220396946
1.0053704514421813
1.0054500904802848
1.0054403522890181
1.0054500687626364
1.0054492352840299
1.0054500674957705
1.0054500151063552
1.0054500674454101
1.0054500624696758
1.0054500674454101
1.0054500151063552
1.0054500674957705
1.0054492352840299
1.0054500687626364
1.0054403522890181
1.0054500904802848
1.0053704514421813
1.0054503220396946
1.0050151403874954
1.0054515160169502
1.0039361141674732
1.0054525893745638
1.0019997622023351
1.0054443161385782
1.0000453978687025
1.0000831516782624
1.0000865117755939
1.0000831404869062
1.0000848688276573
1.0000831398375758
1.0000837139260654
1.0000831409863751
1.0000832615438096
1.0000831412768663
1.0000831579089151
1.0000831413081182
1.0000831428984387
1.0000831413100157
1.0000831414206777
1.0000831413100841
1.000083141321644
1.0000831413100841
1.0000831414206777
1.0000831413100157
1.0000831428984387
1.0000831413081182
1.0000831579089151
1.0000831412768663
1.0000832615438096
1.0000831409863751
1.0000837139260654
1.0000831398375758
1.0000848688276573
1.0000831404869062
1.0000865117755939
1.0000831516782624
1.0000848110417238
1.004568489534309
1.0020865447246152
1.0045719558464594
1.0035934665566466
1.0045718964961954
1.004331222828527
1.0045715866407237
1.0045338862898723
1.0045715321219868
1.0045675513903578
1.0045715276466713
1.0045712291568984
1.0045715274212579
1.0045715108364459
1.0045715274139446
1.0045715260107484
1.0045715274139446
1.0045715108364459
1.0045715274212579
1.0045712291568984
1.0045715276466713
1.0045675513903578
1.0045715321219868
1.0045338862898723
1.0045715866407237
1.004331222828527
1.0045718964961954
1.0035934665566466
1.0045719558464594
1.0020865447246152
1.004568489534309
1.0001584362191025
1.0002858187002031
1.0002919990957244
1.0002858200067299
1.0002883576457633
1.0002858194636484
1.000286509987494
1.0002858194637678
1.0002859414483312
1.0002858194832516
1.0002858340555383
1.000285819485496
1.0002858207228034
1.0002858194855928
1.000285819563687
1.0002858194855924
1.000285819493137
1.0002858194855924
1.000285819563687
1.0002858194855928
1.0002858207228034
1.000285819485496
1.0002858340555383
1.0002858194832516
1.0002859414483312
1.0002858194637678
1.000286509987494
1.0002858194636484
1.0002883576457633
1.0002858200067299
1.0002919990957244
1.0002858187002031
1.0002959571135133
1.0026818897704275
1.001609126228689
1.0026826668746518
1.0023341081754509
1.002682716211905
1.0026125630993747
1.0026826848060819
1.002673526635075
1.0026826794927604
1.0026818584214925
1.0026826791028003
1.0026826260785082
1.0026826790864729
1.0026826765254468
1.0026826790861343
1.0026826788966456
1.0026826790861343
1.0026826765254468
1.0026826790864729
1.0026826260785082
1.0026826791028003
1.0026818584214925
1.0026826794927604
1.002673526635075
1.0026826848060819
1.0026125630993747
1.002682716211905
1.0023341081754509
1.0026826668746518
1.001609126228689
1.0026818897704275
1.0005527786369237
1.0009748995063268
1.0010053986642518
1.0009749009180013
1.0009853368139847
1.0009749009072151
1.0009772545093778
1.0009749008603908
1.0009752588880474
1.0009749008540467
1.0009749391964813
1.0009749008535451
1.0009749038673161
1.0009749008535123
1.0009749010339348
1.0009749008535109
1.0009749008703586
1.0009749008535109
1.0009749010339348
1.0009749008535123
1.0009749038673161
1.0009749008535451
1.0009749391964813
1.0009749008540467
1.0009752588880474
1.0009749008603908
1.0009772545093778
1.0009749009072151
1.0009853368139847
1.0009749009180013
1.0010053986642518
1.0009748995063268
1.001032231036755
1.0024487797689581
1.0022288020200063
1.0024488805836114
1.0023934613616985
1.0024488913080121
1.0024406399547339
1.0024488898717463
1.0024481445863276
1.0024488895940458
1.002448850437784
1.0024488895758401
1.0024488888435921
1.0024488895753236
1.0024488896347608
1.0024488895753307
1.0024488895879449
1.0024488895753307
1.0024488896347608
1.0024488895753236
1.0024488888435921
1.0024488895758401
1.002448850437784
1.0024488895940458
1.0024481445863276
1.0024488898717463
1.0024406399547339
1.0024488913080121
1.0023934613616985
1.0024488805836114
1.0022288020200063
1.0024487797689581
1.0019267346633276
1.0034160544991888
1.0035118134433212
1.0034160610724567
1.0034488595869815
1.0034160614025676
1.0034234459216171
1.0034160611160674
1.0034171829828413
1.0034160610661649
1.0034161811592242
1.0034160610621377
1.003416070502507
1.0034160610619276
1.0034160616272112
1.0034160610619181
1.0034160611147065
1.0034160610619181
1.0034160616272112
1.0034160610619276
1.003416070502507
1.0034160610621377
1.0034161811592242
1.0034160610661649
1.0034171829828413
1.0034160611160674
1.0034234459216171
1.0034160614025676
1.0034488595869815
1.0034160610724567
1.0035118134433212
1.0034160544991888
1.0035936025814203
1.0065164468117038
1.0066319099622012
1.0065164706643024
1.0065617020952198
1.0065164723007796
1.006527613324699
1.0065164714864676
1.0065182595672011
1.0065164713389423
1.0065166692518606
1.0065164713271304
1.0065164872087002
1.0065164713265269
1.006516472289799
1.0065164713265049
1.0065164714171737
1.0065164713265049
1.006516472289799
1.0065164713265269
1.0065164872087002
1.0065164713271304
1.0065166692518606
1.0065164713389423
1.0065182595672011
1.0065164714864676
1.006527613324699
1.0065164723007796
1.0065617020952198
1.0065164706643024
1.0066319099622012
1.0065164468117038
1.006692850924285
1.0119809633093786
1.0122349966122395
1.0119810035163244
1.01207050013427
1.0119810040873365
1.0120016402442595
1.0119810017269777
1.0119841909349498
1.0119810013304888
1.0119813466700354
1.0119810012983699
1.0119810286437292
1.0119810012966515
1.0119810029410259
1.0119810012965824
1.0119810014504449
1.0119810012965824
1.0119810029410259
1.0119810012966515
1.0119810286437292
1.0119810012983699
1.0119813466700354
1.0119810013304888
1.0119841909349498
1.0119810017269777
1.0120016402442595
1.0119810040873365
1.01207050013427
1.0119810035163244
1.0122349966122395
1.0119809633093786
1.0124316508531859
1.0223145221018728
1.0227017838388606
1.0223146135384298
1.0224536714189616
1.0223146124128089
1.0223471438884411
1.022314606215377
1.0223196792762108
1.0223146051972682
1.0223151572202489
1.0223146051148626
1.0223146489149824
1.022314605110425
1.0223146077443508
1.0223146051102467
1.0223146053563581
1.0223146051102467
1.0223146077443508
1.022314605110425
1.0223146489149824
1.0223146051148626
1.0223151572202489
1.0223146051972682
1.0223196792762108
1.022314606215377
1.0223471438884411
1.0223146124128089
1.0224536714189616
1.0223146135384298
1.0227017838388606
1.0223145221018728
1.0229773699100257
1.0411101869444923
1.0416929661457226
1.0411103822859349
1.0413206886137893
1.0411103729682856
1.0411598148694603
1.0411103577348284
1.0411180837318286
1.0411103553074565
1.0411111953186352
1.0411103551122227
1.0411104215546543
1.0411103551016847
1.0411103590776118
1.0411103551012548
1.0411103554704555
1.0411103551012548
1.0411103590776118
1.0411103551016847
1.0411104215546543
1.0411103551122227
1.0411111953186352
1.0411103553074565
1.0411180837318286
1.0411103577348284
1.0411598148694603
1.0411103729682856
1.0413206886137893
1.0411103822859349
1.0416929661457226
1.0411101869444923
1.0420877279156189
1.0744869087653883
1.075324036991651
1.0744873027455097
1.0747908514330626
1.0744872671327277
1.074558786727646
1.0744872325271511
1.0744983765970313
1.0744872272177808
1.0744884303042888
1.0744872267963395
1.0744873209897334
1.0744872267736696
1.074487232339786
1.0744872267727454
1.0744872272823163
1.0744872267727454
1.074487232339786
1.0744872267736696
1.0744873209897334
1.0744872267963395
1.0744884303042888
1.0744872272177808
1.0744983765970313
1.0744872325271511
1.074558786727646
1.0744872671327277
1.0747908514330626
1.0744873027455097
1.075324036991651
1.0744869087653883
1.0758581800212434
1.1310673034376628
1.1322322256028652
1.131068048397696
1.1314896380811312
1.131067942535094
1.1311666846949515
1.1310678701527099
1.1310830635920541
1.1310678595855899
1.1310694706621458
1.1310678587667826
1.1310679821701237
1.1310678587233463
1.1310678658355811
1.1310678587215921
1.1310678593552532
1.1310678587215921
1.1310678658355811
1.1310678587233463
1.1310679821701237
1.1310678587667826
1.1310694706621458
1.1310678595855899
1.1310830635920541
1.1310678701527099
1.1311666846949515
1.131067942535094
1.1314896380811312
1.131068048397696
1.1322322256028652
1.1310673034376628
1.1329642401978293
1.22008094035217
1.2216439451459222
1.2200822353034237
1.2206442548267855
1.2200819719534264
1.2202116991304255
1.2200818345882218
1.2201013163720309
1.2200818157614168
1.2200838167414993
1.220081814356847
1.2200819619628624
1.2200818142843415
1.2200818224386227
1.2200818142814762
1.220081814975434
1.2200818142814762
1.2200818224386227
1.2200818142843415
1.2200819619628624
1.220081814356847
1.2200838167414993
1.2200818157614168
1.2201013163720309
1.2200818345882218
1.2202116991304255
1.2200819719534264
1.2206442548267855
1.2200822353034237
1.2216439451459222
1.22008094035217
1.2227001388253087
1.3450320173646493
1.3470293167939427
1.3450340275182495
1.3457475092803215
1.3450334732926472
1.3451945698185808
1.3450332413193369
1.3450565507294401
1.3450332118575419
1.3450354923701762
1.3450332097769959
1.3450333686622804
1.3450332096745508
1.345033217909354
1.3450332096706863
1.3450332103251297
1.3450332096706863
1.345033217909354
1.3450332096745508
1.3450333686622804
1.3450332097769959
1.3450354923701762
1.3450332118575419
1.3450565507294401
1.3450332413193369
1.3451945698185808
1.3450334732926472
1.3457475092803215
1.3450340275182495
1.3470293167939427
1.3450320173646493
1.3486451353339457
1.4951578655950255
1.497557077704492
1.4951605983217313
1.4960123782981198
1.4951596379051573
1.4953457439080049
1.4951593036669193
1.4951848291544612
1.4951592650660579
1.495161600561433
1.4951592625510794
1.4951594133773694
1.4951592624362737
1.495159269637466
1.4951592624322616
1.4951592629575321
1.4951592624322616
1.495159269637466
1.4951592624362737
1.4951594133773694
1.4951592625510794
1.495161600561433
1.4951592650660579
1.4951848291544612
1.4951593036669193
1.4953457439080049
1.4951596379051573
1.4960123782981198
1.4951605983217313
1.497557077704492
1.4951578655950255
1.5
1.6453673047314037
1.6480500900039436
1.6453704395644826
1.6463055676022862
1.6453691699708657
1.6455633297191103
1.6453687901408247
1.6453936398023461
1.6453687507958401
1.6453708522602786
1.6453687484695838
1.6453688732436969
1.6453687483725601
1.6453687538320521
1.6453687483694539
1.6453687487338644
1.6453687483694539
1.6453687538320521
1.6453687483725601
1.6453688732436969
1.6453687484695838
1.6453708522602786
1.6453687507958401
1.6453936398023461
1.6453687901408247
1.6455633297191103
1.6453691699708657
1.6463055676022862
1.6453704395644826
1.6480500900039436
1.6453673047314037
1.6513548646660543
1.7707568047724014
1.7735089798610881
1.7707597448246124
1.7716795632892197
1.7707585218000443
1.7709372009110302
1.770758194910883
1.7707794089422941
1.7707581643436205
1.7707598238591058
1.7707581626939506
1.7707582537542284
1.7707581626306095
1.7707581663111462
1.7707581626287359
1.7707581628557005
1.7707581626287359
1.7707581663111462
1.7707581626306095
1.7707582537542284
1.7707581626939506
1.7707598238591058
1.7707581643436205
1.7707794089422941
1.770758194910883
1.7709372009110302
1.7707585218000443
1.7716795632892197
1.7707597448246124
1.7735089798610881
1.7707568047724014
1.7772998611746911
1.8607850647016879
1.8633342493221077
1.8607873444926564
1.8615890529844965
1.8607864621182451
1.8609315162330062
1.8607862435693858
1.8608022959873498
1.8607862247804852
1.8607873980437764
1.8607862238393664
1.8607862841157263
1.8607862238055881
1.8607862260898922
1.8607862238046495
1.8607862239368764
1.8607862238046495
1.8607862260898922
1.8607862238055881
1.8607862841157263
1.8607862238393664
1.8607873980437764
1.8607862247804852
1.8608022959873498
1.8607862435693858
1.8609315162330062
1.8607864621182451
1.8615890529844965
1.8607873444926564
1.8633342493221077
1.8607850647016879
1.8670357598021707
1.9188599859337694
1.9209776452042264
1.9188614789991858
1.9194849898484885
1.9188609750435728
1.918966628305613
1.9188608560142864
1.9188718726451888
1.9188608464232735
1.9188616090590058
1.9188608459697298
1.9188608832185234
1.9188608459542773
1.9188608472997433
1.918860845953869
1.9188608460282424
1.918860845953869
1.9188608472997433
1.9188608459542773
1.9188608832185234
1.9188608459697298
1.9188616090590058
1.9188608464232735
1.9188718726451888
1.9188608560142864
1.918966628305613
1.9188609750435728
1.9194849898484885
1.9188614789991858
1.9209776452042264
1.9188599859337694
1.9241418199787566
1.9538860338620279
1.9554757562457388
1.9538868739833504
1.9543272042651201
1.9538866343329271
1.9539572354661479
1.9538865791533053
1.9538936021138897
1.9538865749152043
1.9538870416031218
1.9538865747231864
1.9538865966993439
1.9538865747168979
1.9538865754845323
1.9538865747167387
1.9538865747578629
1.9538865747167387
1.9538865754845323
1.9538865747168979
1.9538865966993439
1.9538865747231864
1.9538870416031218
1.9538865749152043
1.9538936021138897
1.9538865791533053
1.9539572354661479
1.9538866343329271
1.9543272042651201
1.9538868739833504
1.9554757562457388
1.9538860338620279
1.9579122720843811
1.9742290667491518
1.9753174124491943
1.9742294802066158
1.9745165847998403
1.974229381557262
1.9742734993183957
1.9742293590007534
1.9742335970997891
1.9742293573256471
1.9742296308659082
1.9742293572520591
1.9742293698138611
1.9742293572497169
1.9742293576788574
1.9742293572496599
1.9742293572721923
1.9742293572496599
1.9742293576788574
1.9742293572497169
1.9742293698138611
1.9742293572520591
1.9742296308659082
1.9742293573256471
1.9742335970997891
1.9742293590007534
1.9742734993183957
1.974229381557262
1.9745165847998403
1.9742294802066158
1.9753174124491943
1.9742290667491518
1.9770226300899743
1.9857277988121691
1.9864314808239933
1.9857279806547243
1.9859056057327733
1.9857279440545434
1.9857543022295669
1.9857279356614137
1.9857304010666907
1.9857279350531556
1.98572809087265
1.985727935027032
1.9857279420609402
1.98572793502622
1.9857279352630401
1.9857279350261992
1.9857279350384776
1.9857279350261992
1.9857279352630401
1.98572793502622
1.9857279420609402
1.985727935027032
1.98572809087265
1.9857279350531556
1.9857304010666907
1.9857279356614137
1.9857543022295669
1.9857279440545434
1.9859056057327733
1.9857279806547243
1.9864314808239933
1.9857277988121691
1.9875683491468141
1.9923956084632195
1.9927546508827558
1.9923956884553768
1.9924892235870004
1.9923956771106788
1.9924097713810742
1.9923956742321725
1.9923970004091891
1.9923956740206559
1.9923957579410256
1.9923956740115716
1.9923956777954612
1.9923956740112891
1.9923956741383853
1.9923956740112829
1.9923956740178532
1.9923956740112829
1.9923956741383853
1.9923956740112891
1.9923956777954612
1.9923956740115716
1.9923957579410256
1.9923956740206559
1.9923970004091891
1.9923956742321725
1.9924097713810742
1.9923956771106788
1.9924892235870004
1.9923956884553768
1.9927546508827558
1.9923956084632195
1.993307149075715
1.9957274554569002
1.9959810615435631
1.9957274820946516
1.9957880286811913
1.9957274780640712
1.9957360834428921
1.9957274771200679
1.995728256807469
1.9957274770538298
1.9957275251641149
1.9957274770510771
1.9957274791825783
1.9957274770509938
1.9957274771216811
1.9957274770509916
1.9957274770546101
1.9957274770509916
1.9957274771216811
1.9957274770509938
1.9957274791825783
1.9957274770510771
1.9957275251641149
1.9957274770538298
1.995728256807469
1.9957274771200679
1.9957360834428921
1.9957274780640712
1.9957880286811913
1.9957274820946516
1.9959810615435631
1.9957274554569002
1.9964063974185799
1.9989723322911097
1.9986376767223732
1.9989724870864523
1.9989107887832858
1.9989724811453162
1.9989661962734129
1.9989724779943308
1.9989720925331771
1.9989724777296674
1.9989724628686307
1.9989724777172249
1.9989724773684421
1.9989724777168243
1.9989724777133628
1.9989724777168145
1.998972477716968
1.9989724777168145
1.9989724777133628
1.9989724777168243
1.9989724773684421
1.9989724777172249
1.9989724628686307
1.9989724777296674
1.9989720925331771
1.9989724779943308
1.9989661962734129
1.9989724811453162
1.9989107887832858
1.9989724870864523
1.9986376767223732
1.9989723322911097
1.9980732653366724
1.9987432208899978
1.9988301368485522
1.998743222485452
1.9987640495233032
1.9987432224767709
1.9987461792571091
1.9987432225313928
1.9987434892028317
1.9987432225399484
1.9987432388887869
1.9987432225405131
1.9987432232595588
1.9987432225405353
1.9987432225642026
1.9987432225405359
1.9987432225417381
1.9987432225405359
1.9987432225642026
1.9987432225405353
1.9987432232595588
1.9987432225405131
1.9987432388887869
1.9987432225399484
1.9987434892028317
1.9987432225313928
1.9987461792571091
1.9987432224767709
1.9987640495233032
1.998743222485452
1.9988301368485522
1.9987432208899978
1.9989677689632452
2.0031981929357134
2.0014846458922797
2.0031994178773549
2.0027629621527572
2.0031991968366509
2.0031367193814882
2.0031991392384492
2.003193620682949
2.0031991347731837
2.0031988083972068
2.0031991345686628
2.0031991208322526
2.0031991345619629
2.0031991341312505
2.0031991345617954
2.0031991345409983
2.0031991345617954
2.0031991341312505
2.0031991345619629
2.0031991208322526
2.0031991345686628
2.0031988083972068
2.0031991347731837
2.003193620682949
2.0031991392384492
2.0031367193814882
2.0031991968366509
2.0027629621527572
2.0031994178773549
2.0014846458922797
2.0031981929357134
1.9994472213630763
1.9996488948003439
1.9996785323015696
1.9996488872278269
1.9996580151589303
1.9996488906431606
1.9996504821754293
1.9996488917499589
1.9996490599796153
1.9996488918654531
1.999648903531865
1.9996488918721111
1.9996488924377931
1.9996488918723674
1.9996488918925126
1.9996488918723752
1.9996488918734665
1.9996488918723752
1.9996488918925126
1.9996488918723674
1.9996488924377931
1.9996488918721111
1.999648903531865
1.9996488918654531
1.9996490599796153
1.9996488917499589
1.9996504821754293
1.9996488906431606
1.9996580151589303
1.9996488872278269
1.9996785323015696
1.9996488948003439
1.999704042886487
2.0060078259048169
2.0029370937338276
2.0060119053283514
2.0050327750873977
2.0060099329040963
2.0058358813504151
2.0060095044609452
2.0059909607956681
2.0060094697872102
2.0060081795312175
2.0060094681320577
2.006009405458435
2.0060094680756424
2.0060094658406538
2.0060094680741676
2.0060094679528837
2.0060094680741676
2.0060094658406538
2.0060094680756424
2.006009405458435
2.0060094681320577
2.0060081795312175
2.0060094697872102
2.0059909607956681
2.0060095044609452
2.0058358813504151
2.0060099329040963
2.0050327750873977
2.0060119053283514
2.0029370937338276
2.0060078259048169
1.9998415637808975
1.9999151889582765
1.9999151889582765
1.9999151889582765
1.9999151889582765
1.9999151889582765
1.9999151889582765
1.9999151889582765
1.9999151889582765
1.9999151889582765
1.9999151889582765
1.9999151889582765
1.9999151889582765
1.9999151889582765
1.9999151889582765
1.9999151889582765
1.9999151889582765
1.9999151889582765
1.9999151889582765
1.9999151889582765
1.9999151889582765
1.9999151889582765
1.9999151889582765
1.9999151889582765
1.9999151889582765
1.9999151889582765
1.9999151889582765
1.9999151889582765
1.9999151889582765
1.9999151889582765
1.9999151889582765
1.9999151889582765
1.9999151889582765
1.0044792998339178
1.0024243636884231
1.004488014116995
1.0033582309053883
1.0044861885941603
1.0040656461651019
1.0044845044518826
1.0043881437756115
1.004484092262389
1.004469815835596
1.0044840415519003
1.0044825840344638
1.0044840375651478
1.0044839292716037
1.0044840373383501
1.0044840252433549
1.0044840373383501
1.0044839292716037
1.0044840375651478
1.0044825840344638
1.0044840415519003
1.004469815835596
1.004484092262389
1.0043881437756115
1.0044845044518826
1.0040656461651019
1.0044861885941603
1.0033582309053883
1.004488014116995
1.0024243636884231
1.0044792998339178
1.0000453978687025
1.0000835346125581
1.0000854453005661
1.0000835238650967
1.0000843272283437
1.000083522467953
1.0000837809862986
1.0000835236831438
1.000083592157315
1.000083524102273
1.0000835366921115
1.0000835241647557
1.0000835257312073
1.0000835241703914
1.0000835243078274
1.0000835241707458
1.0000835241883284
1.0000835241707458
1.0000835243078274
1.0000835241703914
1.0000835257312073
1.0000835241647557
1.0000835366921115
1.000083524102273
1.000083592157315
1.0000835236831438
1.0000837809862986
1.000083522467953
1.0000843272283437
1.0000835238650967
1.0000854453005661
1.0000835346125581
1.0000848110417238
1.0028052554413749
1.00108521967833
1.0028091465937004
1.0019392814337995
1.0028090118700943
1.00253685342763
1.0028084868761873
1.002755940956902
1.0028083656017992
1.0028016810406764
1.0028083521381042
1.0028077559037818
1.0028083511691783
1.0028083119420108
1.0028083511180741
1.0028083471908988
1.0028083511180741
1.0028083119420108
1.0028083511691783
1.0028077559037818
1.0028083521381042
1.0028016810406764
1.0028083656017992
1.002755940956902
1.0028084868761873
1.00253685342763
1.0028090118700943
1.0019392814337995
1.0028091465937004
1.00108521967833
1.0028052554413749
1.0001584362191025
1.0002935831373618
1.0002954087000984
1.0002935901349568
1.0002944161171459
1.000293588724986
1.0002939078540631
1.0002935882315231
1.0002936683168946
1.0002935881924888
1.0002936009046368
1.0002935881929684
1.0002935895489116
1.000293588193274
1.0002935882966413
1.0002935881933024
1.0002935882050112
1.0002935881933024
1.0002935882966413
1.000293588193274
1.0002935895489116
1.0002935881929684
1.0002936009046368
1.0002935881924888
1.0002936683168946
1.0002935882315231
1.0002939078540631
1.000293588724986
1.0002944161171459
1.0002935901349568
1.0002954087000984
1.0002935831373618
1.0002959571135133
1.0022227342312322
1.0012438389434832
1.002223735312477
1.0018314104200861
1.002223793032146
1.0021269318338069
1.0022237196842529
1.0022084605074861
1.0022237034624777
1.0022220708043996
1.0022237017755979
1.0022235764844081
1.0022237016609876
1.002223694451706
1.0022237016552846
1.0022237010153381
1.0022237016552846
1.002223694451706
1.0022237016609876
1.0022235764844081
1.0022237017755979
1.0022220708043996
1.0022237034624777
1.0022084605074861
1.0022237196842529
1.0021269318338069
1.002223793032146
1.0018314104200861
1.002223735312477
1.0012438389434832
1.0022227342312322
1.0005527786369237
1.0009884051220437
1.0010139096934603
1.0009884085899572
1.000998338238823
1.0009884085295648
1.000991005673052
1.0009884083604907
1.0009888634126449
1.0009884083345866
1.0009884637018918
1.000988408332615
1.000988413209867
1.0009884083325211
1.0009884086559213
1.0009884083325202
1.0009884083655962
1.0009884083325202
1.0009884086559213
1.0009884083325211
1.000988413209867
1.000988408332615
1.0009884637018918
1.0009884083345866
1.0009888634126449
1.0009884083604907
1.000991005673052
1.0009884085295648
1.000998338238823
1.0009884085899572
1.0010139096934603
1.0009884051220437
1.001032231036755
1.0024808220534922
1.0022096449754074
1.0024809815066444
1.0023969800841428
1.0024809987874281
1.0024652221918129
1.0024809934029231
1.0024791133168494
1.0024809921207798
1.0024808435215633
1.0024809919891999
1.0024809840613436
1.002480991980558
1.0024809917067985
1.0024809919801485
1.002480991971167
1.0024809919801485
1.0024809917067985
1.002480991980558
1.0024809840613436
1.0024809919891999
1.0024808435215633
1.0024809921207798
1.0024791133168494
1.0024809934029231
1.0024652221918129
1.0024809987874281
1.0023969800841428
1.0024809815066444
1.0022096449754074
1.0024808220534922
1.0019267346633276
1.0034541471038525
1.0035369828899892
1.0034541558367409
1.003486539364367
1.0034541560699379
1.0034625719634502
1.0034541555227787
1.0034556177757765
1.0034541554133252
1.0034543321055533
1.0034541554027263
1.0034541708904894
1.0034541554020469
1.0034541564255473
1.0034541554020142
1.0034541555064653
1.0034541554020142
1.0034541564255473
1.0034541554020469
1.0034541708904894
1.0034541554027263
1.0034543321055533
1.0034541554133252
1.0034556177757765
1.0034541555227787
1.0034625719634502
1.0034541560699379
1.003486539364367
1.0034541558367409
1.0035369828899892
1.0034541471038525
1.0035936025814203
1.0066184260417337
1.0066888264718643
1.0066184610580706
1.0066546750716816
1.0066184634267716
1.0066296295057278
1.0066184618116711
1.0066206022789348
1.0066184614601883
1.0066187354886251
1.0066184614251101
1.0066184863065086
1.0066184614228384
1.0066184631040962
1.0066184614227285
1.0066184615967664
1.0066184614227285
1.0066184631040962
1.0066184614228384
1.0066184863065086
1.0066184614251101
1.0066187354886251
1.0066184614601883
1.0066206022789348
1.0066184618116711
1.0066296295057278
1.0066184634267716
1.0066546750716816
1.0066184610580706
1.0066888264718643
1.0066184260417337
1.006692850924285
1.0121136082333677
1.0123144725529505
1.0121136539448923
1.0121956410913824
1.0121136529169807
1.0121357856078035
1.0121136490505138
1.0121176000274159
1.012113648297607
1.0121141343991884
1.0121136482244679
1.0121136913302158
1.012113648219743
1.0121136510887199
1.0121136482195163
1.0121136485134543
1.0121136482195163
1.0121136510887199
1.012113648219743
1.0121136913302158
1.0121136482244679
1.0121141343991884
1.012113648297607
1.0121176000274159
1.0121136490505138
1.0121357856078035
1.0121136529169807
1.0121956410913824
1.0121136539448923
1.0123144725529505
1.0121136082333677
1.0124316508531859
1.0225523329684514
1.0228360305661774
1.0225524300543833
1.0226723904164607
1.0225524246404853
1.0225857160976863
1.0225524153058454
1.022558460586243
1.0225524135204014
1.0225531643979766
1.0225524133474115
1.0225524802372798
1.02255241333624
1.022552417793948
1.0225524133357009
1.022552413791993
1.0225524133357009
1.022552417793948
1.02255241333624
1.0225524802372798
1.0225524133474115
1.0225531643979766
1.0225524135204014
1.022558460586243
1.0225524153058454
1.0225857160976863
1.0225524246404853
1.0226723904164607
1.0225524300543833
1.0228360305661774
1.0225523329684514
1.0229773699100257
1.0414844722215224
1.0418896815872354
1.0414846627054934
1.0416570826255453
1.0414846431228701
1.0415329902081807
1.0414846221861176
1.0414934555973065
1.0414846182950328
1.0414857170696348
1.0414846179213888
1.0414847155787457
1.0414846178973753
1.0414846243723543
1.0414846178962165
1.0414846185543107
1.0414846178962165
1.0414846243723543
1.0414846178973753
1.0414847155787457
1.0414846179213888
1.0414857170696348
1.0414846182950328
1.0414934555973065
1.0414846221861176
1.0415329902081807
1.0414846431228701
1.0416570826255453
1.0414846627054934
1.0418896815872354
1.0414844722215224
1.0420877279156189
1.0750492443120323
1.0755892242828469
1.0750495947512084
1.075282354570213
1.0750495399639197
1.0751155892345516
1.0750494970266007
1.0750615975640951
1.0750494893153917
1.0750509871640339
1.075049488585939
1.0750496203622395
1.0750494885395778
1.0750494971553912
1.0750494885373696
1.0750494893987059
1.0750494885373696
1.0750494971553912
1.0750494885395778
1.0750496203622395
1.075049488585939
1.0750509871640339
1.0750494893153917
1.0750615975640951
1.0750494970266007
1.0751155892345516
1.0750495399639197
1.075282354570213
1.0750495947512084
1.0755892242828469
1.0750492443120323
1.0758581800212434
1.1318404720773432
1.1325336804379276
1.1318410642765038
1.1321415287860033
1.1318409344083862
1.1319264089517487
1.1318408545506689
1.1318563744807677
1.1318408408493086
1.1318427279122818
1.1318408395870323
1.1318410016403089
1.1318408395085546
1.1318408498025394
1.1318408395048913
1.1318408405015463
1.1318408395048913
1.1318408498025394
1.1318408395085546
1.1318410016403089
1.1318408395870323
1.1318427279122818
1.1318408408493086
1.1318563744807677
1.1318408545506689
1.1319264089517487
1.1318409344083862
1.1321415287860033
1.1318410642765038
1.1325336804379276
1.1318404720773432
1.1329642401978293
1.2210592274291669
1.2219075305927098
1.2210601207955121
1.2214292248449754
1.221059860531041
1.221164125447088
1.2210597286152354
1.2210782215063636
1.2210597072354443
1.2210618771548067
1.221059705344278
1.2210598836354156
1.2210597052310344
1.2210597159973977
1.2210597052259544
1.2210597062126773
1.2210597052259544
1.2210597159973977
1.2210597052310344
1.2210598836354156
1.221059705344278
1.2210618771548067
1.2210597072354443
1.2210782215063636
1.2210597286152354
1.221164125447088
1.221059860531041
1.2214292248449754
1.2210601207955121
1.2219075305927098
1.2210592274291669
1.2227001388253087
1.346216223310976
1.3471954001614308
1.3462174012105887
1.3466477350854562
1.3462169670676034
1.3463362281010987
1.3462167780730294
1.3462370039978879
1.3462167496106332
1.3462189828140745
1.3462167472515663
1.3462169182038886
1.3462167471191822
1.3462167566734198
1.3462167471136373
1.3462167479210947
1.3462167471136373
1.3462167566734198
1.3462167471191822
1.3462169182038886
1.3462167472515663
1.3462189828140745
1.3462167496106332
1.3462370039978879
1.3462167780730294
1.3463362281010987
1.3462169670676034
1.3466477350854562
1.3462174012105887
1.3471954001614308
1.346216223310976
1.3486451353339457
1.4966558251919841
1.4977316003766756
1.4966571603477477
1.4971320964667187
1.4966565873793622
1.4967819597310272
1.4966563672264224
1.4966760740746456
1.4966563372307606
1.4966583293055384
1.496656334969565
1.4966564737794963
1.4966563348538071
1.4966563418946608
1.4966563348493847
1.4966563353891074
1.4966563348493847
1.4966563418946608
1.4966563348538071
1.4966564737794963
1.496656334969565
1.4966583293055384
1.4966563372307606
1.4966760740746456
1.4966563672264224
1.4967819597310272
1.4966565873793622
1.4971320964667187
1.4966571603477477
1.4977316003766756
1.4966558251919841
1.5
1.647379888881946
1.6485167494000481
1.6473811358677313
1.6478635972574438
1.6473805861171364
1.6474971406099475
1.6473803950515269
1.6473969627832732
1.6473803717475266
1.6473818837278189