# vtk DataFile Version 3.0
Euler density step 326
ASCII
DATASET STRUCTURED_POINTS
DIMENSIONS 32 32 32
ORIGIN 0 0 0
SPACING 0.3125 0.3125 0.3125
POINT_DATA 32768
SCALARS density double 1
LOOKUP_TABLE default
1.0064113031402977
1.0020161928766298
1.0064245055710193
1.0040478160141748
1.0064248152298509
1.0054843985852782
1.0064222800631553
1.0061761551180815
1.0064213571376832
1.0063781876161031
1.0064212122432834
1.0064159092510132
1.0064211987592853
1.0064207210232439
1.0064211978999937
1.006421133275359
1.0064211978999937
1.0064207210232439
1.0064211987592853
1.0064159092510132
1.0064212122432834
1.0063781876161031
1.0064213571376832
1.0061761551180815
1.0064222800631553
1.0054843985852782
1.0064248152298509
1.0040478160141748
1.0064245055710193
1.0020161928766298
1.0064113031402977
1.0000453978687025
1.0000731880360936
1.0000829585782978
1.0000731620131584
1.0000779737626146
1.0000731574601842
1.0000749825588684
1.0000731605981659
1.0000736553935023
1.0000731621067787
1.0000732548122713
1.0000731623850896
1.0000731746224232
1.0000731624139567
1.0000731635964628
1.0000731624158761
1.0000731625865933
1.0000731624158761
1.0000731635964628
1.0000731624139567
1.0000731746224232
1.0000731623850896
1.0000732548122713
1.0000731621067787
1.0000736553935023
1.0000731605981659
1.0000749825588684
1.0000731574601842
1.0000779737626146
1.0000731620131584
1.0000829585782978
1.0000731880360936
1.0000848110417238
1.005744952955304
1.0021802090714069
1.0057516161154383
1.0039034186065547
1.0057524377868967
1.0051012607481309
1.0057514638119753
1.005602510074098
1.005751134319367
1.0057282110190013
1.0057510889563541
1.005748597230256
1.0057510852390574
1.0057508851487402
1.0057510850307472
1.0057510607095641
1.0057510850307472
1.0057508851487402
1.0057510852390574
1.005748597230256
1.0057510889563541
1.0057282110190013
1.005751134319367
1.005602510074098
1.0057514638119753
1.0051012607481309
1.0057524377868967
1.0039034186065547
1.0057516161154383
1.0021802090714069
1.005744952955304
1.0001584362191025
1.0002632007235559
1.0002822173797057
1.0002632032655061
1.0002714343859718
1.0002632008262324
1.000265830359381
1.0002632007032957
1.0002637945233028
1.0002632008930432
1.0002632954006307
1.0002632009342294
1.0002632118024073
1.0002632009381907
1.0002632018736461
1.0002632009383994
1.0002632010613088
1.0002632009383994
1.0002632018736461
1.0002632009381907
1.0002632118024073
1.0002632009342294
1.0002632954006307
1.0002632008930432
1.0002637945233028
1.0002632007032957
1.000265830359381
1.0002632008262324
1.0002714343859718
1.0002632032655061
1.0002822173797057
1.0002632007235559
1.0002959571135133
1.0040482202964518
1.0019505937645481
1.0040503565424803
1.0031232499534131
1.00405073736092
1.0037819151364056
1.0040505758588543
1.0039994109612362
1.0040505238860506
1.0040438442089969
1.0040505174901784
1.0040498912820559
1.0040505170233076
1.0040504731458821
1.0040505170007368
1.0040505123011572
1.0040505170007368
1.0040504731458821
1.0040505170233076
1.0040498912820559
1.0040505174901784
1.0040438442089969
1.0040505238860506
1.0039994109612362
1.0040505758588543
1.0037819151364056
1.00405073736092
1.0031232499534131
1.0040503565424803
1.0019505937645481
1.0040482202964518
1.0005527786369237
1.0009116001441396
1.000980669609288
1.0009116071295816
1.0009401428801985
1.0009116075726248
1.0009198778855555
1.0009116072459248
1.0009132751572141
1.0009116071794688
1.0009118471157683
1.0009116071730313
1.000911632636079
1.0009116071725517
1.0009116092375385
1.0009116071725175
1.0009116074331412
1.0009116071725175
1.0009116092375385
1.0009116071725517
1.000911632636079
1.0009116071730313
1.0009118471157683
1.0009116071794688
1.0009132751572141
1.0009116072459248
1.0009198778855555
1.0009116075726248
1.0009401428801985
1.0009116071295816
1.000980669609288
1.0009116001441396
1.001032231036755
1.0031858270451735
1.0025210426867242
1.0031862523462185
1.0029473681578742
1.0031863397450156
1.0031316217654191
1.0031863284781826
1.00317816657884
1.0031863241257011
1.0031855024746661
1.0031863236164267
1.0031862666790514
1.0031863235831238
1.0031863209239398
1.0031863235818343
1.0031863234397351
1.0031863235818343
1.0031863209239398
1.0031863235831238
1.0031862666790514
1.0031863236164267
1.0031855024746661
1.0031863241257011
1.00317816657884
1.0031863284781826
1.0031316217654191
1.0031863397450156
1.0029473681578742
1.0031862523462185
1.0025210426867242
1.0031858270451735
1.0019267346633276
1.0032513112920913
1.0034525525919089
1.0032513355378383
1.0033359059750779
1.003251339408207
1.0032760693231402
1.0032513380472716
1.0032563474205554
1.003251337619103
1.0032520604659529
1.0032513375667058
1.0032514145059266
1.0032513375627472
1.0032513438216337
1.0032513375625312
1.0032513383549022
1.0032513375625312
1.0032513438216337
1.0032513375627472
1.0032514145059266
1.0032513375667058
1.0032520604659529
1.003251337619103
1.0032563474205554
1.0032513380472716
1.0032760693231402
1.003251339408207
1.0033359059750779
1.0032513355378383
1.0034525525919089
1.0032513112920913
1.0035936025814203
1.0065441453260078
1.0066803451358768
1.0065442472195378
1.0066235561828243
1.0065442663314226
1.0065732206913713
1.0065442629353976
1.0065509878720444
1.0065442616634557
1.006545317856772
1.0065442615047415
1.0065443801540386
1.0065442614930342
1.0065442714929642
1.0065442614924331
1.0065442627885033
1.0065442614924331
1.0065442714929642
1.0065442614930342
1.0065443801540386
1.0065442615047415
1.006545317856772
1.0065442616634557
1.0065509878720444
1.0065442629353976
1.0065732206913713
1.0065442663314226
1.0066235561828243
1.0065442472195378
1.0066803451358768
1.0065441453260078
1.006692850924285
1.0116521302073185
1.0121311266476498
1.0116522500881837
1.0118610871830898
1.011652265441602
1.0117155230077999
1.0116522556470453
1.0116654304402521
1.011652252756901
1.0116541932645688
1.0116522524015199
1.0116524620269138
1.0116522523742772
1.0116522696085233
1.0116522523727605
1.0116522545707733
1.0116522523727605
1.0116522696085233
1.0116522523742772
1.0116524620269138
1.0116522524015199
1.0116541932645688
1.011652252756901
1.0116654304402521
1.0116522556470453
1.0117155230077999
1.011652265441602
1.0118610871830898
1.0116522500881837
1.0121311266476498
1.0116521302073185
1.0124316508531859
1.0219395901087314
1.0226078017075417
1.0219398400089326
1.022241201944097
1.0219398657351919
1.0220337309321372
1.0219398419665793
1.0219597633498541
1.0219398351711306
1.0219428044188144
1.0219398343358015
1.0219401573939322
1.0219398342714161
1.021939860938244
1.0219398342678006
1.0219398376752069
1.0219398342678006
1.021939860938244
1.0219398342714161
1.0219401573939322
1.0219398343358015
1.0219428044188144
1.0219398351711306
1.0219597633498541
1.0219398419665793
1.0220337309321372
1.0219398657351919
1.022241201944097
1.0219398400089326
1.0226078017075417
1.0219395901087314
1.0229773699100257
1.0405841287597695
1.0415600005240209
1.0405846160019208
1.041023532867392
1.0405846468772939
1.0407217193103373
1.0405845922213537
1.0406137626536729
1.0405845773296616
1.0405889292268351
1.0405845755159178
1.0405850485380246
1.0405845753760814
1.0405846143179569
1.0405845753681806
1.0405845803248184
1.0405845753681806
1.0405846143179569
1.0405845753760814
1.0405850485380246
1.0405845755159178
1.0405889292268351
1.0405845773296616
1.0406137626536729
1.0405845922213537
1.0407217193103373
1.0405846468772939
1.041023532867392
1.0405846160019208
1.0415600005240209
1.0405841287597695
1.0420877279156189
1.0738707262100169
1.0751955282773658
1.0738716415918097
1.0744724346616306
1.0738716568542366
1.074060757331019
1.0738715410773816
1.0739118763092199
1.0738715110953994
1.0738775117111732
1.0738715075003453
1.0738721554381494
1.0738715072248812
1.0738715600709201
1.0738715072093257
1.0738715138617858
1.0738715072093257
1.0738715600709201
1.0738715072248812
1.0738721554381494
1.0738715075003453
1.0738775117111732
1.0738715110953994
1.0739118763092199
1.0738715410773816
1.074060757331019
1.0738716568542366
1.0744724346616306
1.0738716415918097
1.0751955282773658
1.0738707262100169
1.0758581800212434
1.1303541283183172
1.1321131294946525
1.1303557679283112
1.1311532179668851
1.1303557023516744
1.1306065285499696
1.1303554746420772
1.1304085844230152
1.1303554192386545
1.1303632149524412
1.1303554127730864
1.1303562396220646
1.1303554122857442
1.1303554783087999
1.13035541225851
1.1303554203793094
1.13035541225851
1.1303554783087999
1.1303554122857442
1.1303562396220646
1.1303554127730864
1.1303632149524412
1.1303554192386545
1.1304085844230152
1.1303554746420772
1.1306065285499696
1.1303557023516744
1.1311532179668851
1.1303557679283112
1.1321131294946525
1.1303541283183172
1.1329642401978293
1.219282986636933
1.2215457104675445
1.2192857319163035
1.2203089237367428
1.2192854441653962
1.2196048963785404
1.2192850323852413
1.2193514787560429
1.2192849394275851
1.2192944409846416
1.2192849290238545
1.219285904923807
1.2192849282630389
1.2192850033726546
1.2192849282215217
1.2192849371003323
1.2192849282215217
1.2192850033726546
1.2192849282630389
1.219285904923807
1.2192849290238545
1.2192944409846416
1.2192849394275851
1.2193514787560429
1.2192850323852413
1.2196048963785404
1.2192854441653962
1.2203089237367428
1.2192857319163035
1.2215457104675445
1.219282986636933
1.2227001388253087
1.344132701162698
1.3469234141538791
1.3441368573761858
1.3453977673611124
1.3441361203975219
1.3445247278917725
1.3441354483916503
1.344214023707079
1.3441353090073624
1.3441461044500074
1.3441352942641713
1.3441363505045447
1.3441352932344788
1.3441353701497152
1.3441352931805741
1.3441353017456543
1.3441352931805741
1.3441353701497152
1.3441352932344788
1.3441363505045447
1.3441352942641713
1.3441461044500074
1.3441353090073624
1.344214023707079
1.3441354483916503
1.3445247278917725
1.3441361203975219
1.3453977673611124
1.3441368573761858
1.3469234141538791
1.344132701162698
1.3486451353339457
1.4941056854378811
1.4973571507379584
1.4941112696045782
1.4955867804679734
1.4941098591230626
1.4945561675443386
1.4941088978060657
1.4941955425708817
1.4941087165842757
1.4941199747426916
1.4941086988286552
1.4941097300277688
1.4941086976718918
1.4941087674542268
1.4941086976153
1.4941087048066108
1.4941086976153
1.4941087674542268
1.4941086976718918
1.4941097300277688
1.4941086988286552
1.4941199747426916
1.4941087165842757
1.4941955425708817
1.4941088978060657
1.4945561675443386
1.4941098591230626
1.4955867804679734
1.4941112696045782
1.4973571507379584
1.4941056854378811
1.5
1.6441255190871753
1.6476938018036036
1.6441320065599176
1.6457531182420728
1.6441299996517393
1.6446039164946595
1.6441288677789359
1.64421572514896
1.6441286759300071
1.6441391939540364
1.6441286588370065
1.6441295502428137
1.6441286578165137
1.644128713376876
1.6441286577705765
1.6441286630343124
1.6441286577705765
1.644128713376876
1.6441286578165137
1.6441295502428137
1.6441286588370065
1.6441391939540364
1.6441286759300071
1.64421572514896
1.6441288677789359
1.6446039164946595
1.6441299996517393
1.6457531182420728
1.6441320065599176
1.6476938018036036
1.6441255190871753
1.6513548646660543
1.7693554419019355
1.7730499575342564
1.7693617773629977
1.7710053017225502
1.7693596978572401
1.7698139002514275
1.7693586525758394
1.7694362090364248
1.7693584928816937
1.7693671968554063
1.7693584799444091
1.7693591622704368
1.7693584792349151
1.769358518535143
1.7693584792053967
1.7693584826468132
1.7693584792053967
1.769358518535143
1.7693584792349151
1.7693591622704368
1.7693584799444091
1.7693671968554063
1.7693584928816937
1.7694362090364248
1.7693586525758394
1.7698139002514275
1.7693596978572401
1.7710053017225502
1.7693617773629977
1.7730499575342564
1.7693554419019355
1.7772998611746911
1.8592800419129818
1.8628476962895524
1.8592852650394949
1.8607956163123227
1.8592836423975507
1.8596724726164504
1.8592828787992715
1.8593445735728591
1.8592827722232612
1.8592892181361949
1.8592827642724366
1.8592832357678661
1.8592827638668541
1.8592827892476698
1.8592827638510698
1.8592827659315716
1.8592827638510698
1.8592827892476698
1.8592827638668541
1.8592832357678661
1.8592827642724366
1.8592892181361949
1.8592827722232612
1.8593445735728591
1.8592828787992715
1.8596724726164504
1.8592836423975507
1.8607956163123227
1.8592852650394949
1.8628476962895524
1.8592800419129818
1.8670357598021707
1.9173393194633155
1.9204896751877609
1.9173429974634915
1.9185926222524461
1.9173419942643783
1.9176412295984342
1.917341537817504
1.9173859410578087
1.9173414786477661
1.9173458435839645
1.9173414745185127
1.9173417763078715
1.9173414743197963
1.9173414897239422
1.917341474312471
1.9173414755127496
1.917341474312471
1.9173414897239422
1.9173414743197963
1.9173417763078715
1.9173414745185127
1.9173458435839645
1.9173414786477661
1.9173859410578087
1.917341537817504
1.9176412295984342
1.9173419942643783
1.9185926222524461
1.9173429974634915
1.9204896751877609
1.9173393194633155
1.9241418199787566
1.9524556874364287
1.9549877571992262
1.9524579267942836
1.9533966205560156
1.9524574136136876
1.9526678875510952
1.9524571820883414
1.9524866990550167
1.9524571537596627
1.9524599174430726
1.9524571518825444
1.9524573349050511
1.9524571517962144
1.9524571607790131
1.9524571517931657
1.952457152468156
1.9524571517931657
1.9524571607790131
1.9524571517962144
1.9524573349050511
1.9524571518825444
1.9524599174430726
1.9524571537596627
1.9524866990550167
1.9524571820883414
1.9526678875510952
1.9524574136136876
1.9533966205560156
1.9524579267942836
1.9549877571992262
1.9524556874364287
1.9579122720843811
1.9730772481187107
1.9749077534274084
1.9730784423697911
1.9737218782941628
1.9730782192943792
1.9732153017441898
1.9730781166899554
1.9730965316567719
1.9730781046480821
1.9730797677978125
1.9730781038801517
1.9730782106706302
1.9730781038460237
1.9730781089466585
1.973078103844857
1.9730781042188887
1.973078103844857
1.9730781089466585
1.9730781038460237
1.9730782106706302
1.9730781038801517
1.9730797677978125
1.9730781046480821
1.9730965316567719
1.9730781166899554
1.9732153017441898
1.9730782192943792
1.9737218782941628
1.9730784423697911
1.9749077534274084
1.9730772481187107
1.9770226300899743
1.9847866369955782
1.9860544052522162
1.9847872077000961
1.9852073688037815
1.984787120747372
1.9848724097964159
1.9847870795761635
1.9847981228469427
1.984787074903263
1.984788044198895
1.9847870746140841
1.9847871354394806
1.984787074601573
1.9847870774516674
1.9847870746011533
1.9847870748067531
1.9847870746011533
1.9847870774516674
1.984787074601573
1.9847871354394806
1.9847870746140841
1.984788044198895
1.984787074903263
1.9847981228469427
1.9847870795761635
1.9848724097964159
1.984787120747372
1.9852073688037815
1.9847872077000961
1.9860544052522162
1.9847866369955782
1.9875683491468141
1.9920874104981914
1.9926677965178023
1.9920876922689918
1.9922936476950794
1.9920876695002017
1.9921311972182703
1.9920876547189017
1.9920934099319736
1.9920876529927491
1.9920881633466909
1.9920876528850728
1.9920876850531728
1.9920876528804321
1.9920876543894983
1.9920876528802813
1.9920876529890643
1.9920876528802813
1.9920876543894983
1.9920876528804321
1.9920876850531728
1.9920876528850728
1.9920881633466909
1.9920876529927491
1.9920934099319736
1.9920876547189017
1.9921311972182703
1.9920876695002017
1.9922936476950794
1.9920876922689918
1.9926677965178023
1.9920874104981914
1.993307149075715
1.995281204141214
1.9957820062106451
1.9952813016385555
1.9954356183027209
1.9952812917158325
1.9953107788448221
1.9952812865328096
1.9952849341477408
1.9952812859707687
1.9952815952613006
1.9952812859375118
1.9952813048329328
1.99528128593613
1.9952812868027312
1.9952812859360842
1.9952812859975098
1.9952812859360842
1.9952812868027312
1.99528128593613
1.9952813048329328
1.9952812859375118
1.9952815952613006
1.9952812859707687
1.9952849341477408
1.9952812865328096
1.9953107788448221
1.9952812917158325
1.9954356183027209
1.9952813016385555
1.9957820062106451
1.995281204141214
1.9964063974185799
1.9997336503660743
1.9989349535260021
1.9997341832098767
1.999518280947068
1.9997341735274579
1.9997005510846266
1.9997341532057409
1.9997308940891581
1.9997341506544197
1.9997339401410932
1.9997341504848825
1.9997341409832541
1.9997341504772215
1.9997341501692198
1.9997341504769619
1.9997341504626183
1.9997341504769619
1.9997341501692198
1.9997341504772215
1.9997341409832541
1.9997341504848825
1.9997339401410932
1.9997341506544197
1.9997308940891581
1.9997341532057409
1.9997005510846266
1.9997341735274579
1.999518280947068
1.9997341832098767
1.9989349535260021
1.9997336503660743
1.9980732653366724
1.998581748009481
1.9987584747109719
1.9985817563642629
1.9986365211704558
1.9985817563552228
1.9985922734078789
1.9985817566405801
1.998583059730664
1.9985817567145596
1.9985818670371915
1.9985817567218791
1.9985817634360636
1.9985817567223043
1.998581757028594
1.9985817567223212
1.9985817567438937
1.9985817567223212
1.998581757028594
1.9985817567223043
1.9985817634360636
1.9985817567218791
1.9985818670371915
1.9985817567145596
1.998583059730664
1.9985817566405801
1.9985922734078789
1.9985817563552228
1.9986365211704558
1.9985817563642629
1.9987584747109719
1.998581748009481
1.9989677689632452
2.0042529437009513
2.0015562579318531
2.0042559718404593
2.0032923537067866
2.0042554701683852
2.0040562314306753
2.0042552114751366
2.0042298421949019
2.004255180371874
2.004253030742126
2.0042551783313143
2.0042550493693896
2.0042551782381079
2.0042551724919053
2.0042551782348692
2.0042551778418294
2.0042551782348692
2.0042551724919053
2.0042551782381079
2.0042550493693896
2.0042551783313143
2.004253030742126
2.004255180371874
2.0042298421949019
2.0042552114751366
2.0040562314306753
2.0042554701683852
2.0032923537067866
2.0042559718404593
2.0015562579318531
2.0042529437009513
1.9994472213630763
1.9996096637437304
1.9996635221544297
1.999609643672805
1.9996301669674608
1.9996096502142753
1.9996145478782386
1.9996096543997388
1.9996103860604804
1.999609655097516
1.9996097272696618
1.9996096551577511
1.9996096601327875
1.9996096551611149
1.9996096554126419
1.9996096551612514
1.999609655180546
1.9996096551612514
1.9996096554126419
1.9996096551611149
1.9996096601327875
1.9996096551577511
1.9996097272696618
1.999609655097516
1.9996103860604804
1.9996096543997388
1.9996145478782386
1.9996096502142753
1.9996301669674608
1.999609643672805
1.9996635221544297
1.9996096637437304
1.999704042886487
2.006627610373918
2.0027981308628511
2.0066359496267117
2.0049953498515332
2.0066325635115558
2.0062168398595981
2.0066312793171575
2.0065677980758552
2.0066311139926118
2.0066248126407289
2.0066311023169474
2.006630667729731
2.0066311017519207
2.0066310798114153
2.0066311017312026
2.0066311000514161
2.0066311017312026
2.0066310798114153
2.0066311017519207
2.006630667729731
2.0066311023169474
2.0066248126407289
2.0066311139926118
2.0065677980758552
2.0066312793171575
2.0062168398595981
2.0066325635115558
2.0049953498515332
2.0066359496267117
2.0027981308628511
2.006627610373918
1.9998415637808975
1.9999151889582765
1.9999151889582765
1.9999151889582765
1.9999151889582765
1.9999151889582765
1.9999151889582765
1.9999151889582765
1.9999151889582765
1.9999151889582765
1.9999151889582765
1.9999151889582765
1.9999151889582765
1.9999151889582765
1.9999151889582765
1.9999151889582765
1.9999151889582765
1.9999151889582765
1.9999151889582765
1.9999151889582765
1.9999151889582765
1.9999151889582765
1.9999151889582765
1.9999151889582765
1.9999151889582765
1.9999151889582765
1.9999151889582765
1.9999151889582765
1.9999151889582765
1.9999151889582765
1.9999151889582765
1.9999151889582765
1.9999151889582765
1.004157452211474
1.0021301363623951
1.0041689816028918
1.0028558870059101
1.0041681981608856
1.0034815107481503
1.0041657445719396
1.0039356054931405
1.0041646415436498
1.0041150823444505
1.004164419095581
1.0041571504428628
1.0041643926052337
1.0041636221306054
1.0041643904287698
1.0041642690790129
1.0041643904287698
1.0041636221306054
1.0041643926052337
1.0041571504428628
1.004164419095581
1.0041150823444505
1.0041646415436498
1.0039356054931405
1.0041657445719396
1.0034815107481503
1.0041681981608856
1.0028558870059101
1.0041689816028918
1.0021301363623951
1.004157452211474
1.0000453978687025
1.0000765117114385
1.0000836014435472
1.0000764887818356
1.0000797916234572
1.0000764847831809
1.0000775953837213
1.0000764876233794
1.0000767939810302
1.0000764891957925
1.0000765554198461
1.0000764895547163
1.0000765001506278
1.0000764896025343
1.0000764908568327
1.0000764896068217
1.0000764898267194
1.0000764896068217
1.0000764908568327
1.0000764896025343
1.0000765001506278
1.0000764895547163
1.0000765554198461
1.0000764891957925
1.0000767939810302
1.0000764876233794
1.0000775953837213
1.0000764847831809
1.0000797916234572
1.0000764887818356
1.0000836014435472
1.0000765117114385
1.0000848110417238
1.0026254612959948
1.0008719582839929
1.0026311105506187
1.00144881490195
1.0026318663768665
1.0020819395813174
1.0026308251024083
1.0024722801465944
1.0026303603439197
1.0026007291410155
1.0026302769824758
1.0026264508389133
1.0026302680866892
1.0026299067946487
1.002630267419466
1.0026302160959528
1.002630267419466
1.0026299067946487
1.0026302680866892
1.0026264508389133
1.0026302769824758
1.0026007291410155
1.0026303603439197
1.0024722801465944
1.0026308251024083
1.0020819395813174
1.0026318663768665
1.00144881490195
1.0026311105506187
1.0008719582839929
1.0026254612959948
1.0001584362191025
1.0002760729926441
1.0002881852394188
1.0002760847964636
1.000280990364256
1.0002760819179366
1.0002776282048673
1.0002760804304534
1.0002764706749294
1.0002760802986157
1.0002761546534289
1.0002760803153976
1.0002760907005592
1.000276080320182
1.0002760813993661
1.0002760803207205
1.0002760804893236
1.0002760803207205
1.0002760813993661
1.000276080320182
1.0002760907005592
1.0002760803153976
1.0002761546534289
1.0002760802986157
1.0002764706749294
1.0002760804304534
1.0002776282048673
1.0002760819179366
1.000280990364256
1.0002760847964636
1.0002881852394188
1.0002760729926441
1.0002959571135133
1.0025407835214029
1.001154280906569
1.0025427573632655
1.0017712816891036
1.0025431791513733
1.0022629666888418
1.0025429528924712
1.0024779920934275
1.0025428585422345
1.0025327442240783
1.0025428434226502
1.0025417255383089
1.0025428419446136
1.0025427498648658
1.0025428418415139
1.002542830240845
1.0025428418415139
1.0025427498648658
1.0025428419446136
1.0025417255383089
1.0025428434226502
1.0025327442240783
1.0025428585422345
1.0024779920934275
1.0025429528924712
1.0022629666888418
1.0025431791513733
1.0017712816891036
1.0025427573632655
1.001154280906569
1.0025407835214029
1.0005527786369237
1.0009530323177442
1.0010027316289667
1.0009530429988116
1.0009759715933484
1.0009530436552829
1.0009606790037755
1.0009530428867797
1.0009548177773835
1.0009530426949984
1.0009533346394315
1.0009530426735456
1.0009530777321385
1.0009530426721098
1.0009530458603788
1.0009530426720503
1.0009530431188576
1.0009530426720503
1.0009530458603788
1.0009530426721098
1.0009530777321385
1.0009530426735456
1.0009533346394315
1.0009530426949984
1.0009548177773835
1.0009530428867797
1.0009606790037755
1.0009530436552829
1.0009759715933484
1.0009530429988116
1.0010027316289667
1.0009530323177442
1.001032231036755
1.0029278164487001
1.0023249788325024
1.0029282917604208
1.0026654691684636
1.0029284047169913
1.0028547916442829
1.0029283810037652
1.0029149732208129
1.0029283703138732
1.0029267057237985
1.0029283686758974
1.0029282215240827
1.002928368523061
1.0029283589436173
1.002928368512934
1.0029283675832017
1.002928368512934
1.0029283589436173
1.002928368523061
1.0029282215240827
1.0029283686758974
1.0029267057237985
1.0029283703138732
1.0029149732208129
1.0029283810037652
1.0028547916442829
1.0029284047169913
1.0026654691684636
1.0029282917604208
1.0023249788325024
1.0029278164487001
1.0019267346633276
1.0033793033124918
1.0035210787453175
1.0033793281124233
1.0034475629541388
1.0033793318929356
1.0034025790354026
1.0033793300109011
1.0033847699047505
1.0033793293397606
1.0033802237014184
1.0033793292424673
1.0033794363695756
1.0033793292336957
1.0033793389503174
1.003379329233121
1.0033793305920722
1.003379329233121
1.0033793389503174
1.0033793292336957
1.0033794363695756
1.0033793292424673
1.0033802237014184
1.0033793293397606
1.0033847699047505
1.0033793300109011
1.0034025790354026
1.0033793318929356
1.0034475629541388
1.0033793281124233
1.0035210787453175
1.0033793033124918
1.0035936025814203
1.0067591721961422
1.0067719372926085
1.0067592893919874
1.0067918729455636
1.0067593137046387
1.0067788283791381
1.0067593085835287
1.0067653111275678
1.0067593063027465
1.0067604534922829
1.0067593059535755
1.0067594562943585
1.0067593059213047
1.006759320359081
1.0067593059191815
1.0067593080150263
1.0067593059191815
1.006759320359081
1.0067593059213047
1.0067594562943585
1.0067593059535755
1.0067604534922829
1.0067593063027465
1.0067653111275678
1.0067593085835287
1.0067788283791381
1.0067593137046387
1.0067918729455636
1.0067592893919874
1.0067719372926085
1.0067591721961422
1.006692850924285
1.0120136464840375
1.0123132733344824
1.0120137497064599
1.012166213369575
1.0120137610857918
1.0120686720250938
1.0120137497628412
1.0120271566606933
1.0120137458893292
1.0120160175760957
1.0120137453189912
1.0120140232097641
1.0120137452665923
1.012013770843575
1.0120137452631008
1.0120137488759051
1.0120137452631008
1.012013770843575
1.0120137452665923
1.0120140232097641
1.0120137453189912
1.0120160175760957
1.0120137458893292
1.0120271566606933
1.0120137497628412
1.0120686720250938
1.0120137610857918
1.012166213369575
1.0120137497064599
1.0123132733344824
1.0120136464840375
1.0124316508531859
1.0225211722185843
1.0228873815363457
1.0225213749959698
1.0227208780980697
1.0225213912626956
1.0225973784123437
1.0225213661663759
1.0225405939329215
1.0225213577523209
1.0225246867119056
1.0225213565077071
1.0225217689422184
1.0225213563927245
1.0225213946255705
1.0225213563850242
1.022521361804295
1.0225213563850242
1.0225213946255705
1.0225213563927245
1.0225217689422184
1.0225213565077071
1.0225246867119056
1.0225213577523209
1.0225405939329215
1.0225213661663759
1.0225973784123437
1.0225213912626956
1.0227208780980697
1.0225213749959698
1.0228873815363457
1.0225211722185843
1.0229773699100257
1.0414292369267217
1.0419499329886053
1.0414295977859285
1.0417079183039879
1.0414296066223125
1.0415357367396565
1.0414295539791212
1.0414565475323783
1.0414295371327795
1.0414342261091487
1.0414295346583853
1.0414301158612533
1.0414295344300084
1.0414295881907454
1.0414295344147018
1.0414295420029447
1.0414295344147018
1.0414295881907454
1.0414295344300084
1.0414301158612533
1.0414295346583853
1.0414342261091487
1.0414295371327795
1.0414565475323783
1.0414295539791212
1.0415357367396565
1.0414296066223125
1.0417079183039879
1.0414295977859285
1.0419499329886053
1.0414292369267217
1.0420877279156189
1.0750566461576077
1.0757030371194933
1.0750572689927944
1.0754079897357163
1.0750572472618847
1.0751940229380585
1.0750571466752787
1.0750923725924684
1.0750571158941351
1.0750632525823565
1.0750571114229948
1.0750578690583388
1.0750571110127733
1.075057180477663
1.0750571109854272
1.0750571206736599
1.0750571109854272
1.075057180477663
1.0750571110127733
1.0750578690583388
1.0750571114229948
1.0750632525823565
1.0750571158941351
1.0750923725924684
1.0750571466752787
1.0751940229380585
1.0750572472618847
1.0754079897357163
1.0750572689927944
1.0757030371194933
1.0750566461576077
1.0758581800212434
1.1319004949775231
1.1326892228174101
1.1319014983526661
1.132329514309256
1.1319013944486713
1.1320701934165425
1.1319012181914285
1.1319447125323019
1.1319011671618606
1.131908669451676
1.1319011599191005
1.1319020702531468
1.1319011592658497
1.1319012408545805
1.1319011592229988
1.1319011703083444
1.1319011592229988
1.1319012408545805
1.1319011592658497
1.1319020702531468
1.1319011599191005
1.131908669451676
1.1319011671618606
1.1319447125323019
1.1319012181914285
1.1320701934165425
1.1319013944486713
1.132329514309256
1.1319014983526661
1.1326892228174101
1.1319004949775231
1.1329642401978293
1.2211566970046326
1.2220750200324024
1.2211581501970921
1.2216587065991162
1.2211578917489454
1.221356270438599
1.2211576141964906
1.2212081259491852
1.2211575388083589
1.2211660344900228
1.2211575284950205
1.2211585243039391
1.2211575275932525
1.2211576131868771
1.2211575275358966
1.2211575386381524
1.2211575275358966
1.2211576131868771
1.2211575275932525
1.2211585243039391
1.2211575284950205
1.2211660344900228
1.2211575388083589
1.2212081259491852
1.2211576141964906
1.221356270438599
1.2211578917489454
1.2216587065991162
1.2211581501970921
1.2220750200324024
1.2211566970046326
1.2227001388253087
1.3462624865367692
1.3472733774640564
1.3462643247982495
1.3468238474389609
1.3462638594580987
1.34648540052279
1.3462634752392366
1.3463183544884023
1.3462633778308268
1.346272192256762
1.3462633652148162
1.3462643398508993
1.3462633641690767
1.3462634425122877
1.3462633641061965
1.3462633735643377
1.3462633641061965
1.3462634425122877
1.3462633641690767
1.3462643398508993
1.3462633652148162
1.346272192256762
1.3462633778308268
1.3463183544884023
1.3462634752392366
1.34648540052279
1.3462638594580987
1.3468238474389609
1.3462643247982495
1.3472733774640564
1.3462624865367692
1.3486451353339457
1.4965666519940852
1.4976156441381949
1.4965686679694923
1.4971699262787002
1.4965680453122692
1.4968019048288939
1.496567596405521
1.4966223568305108
1.496567491917479
1.4965756495539584
1.4965674794879789
1.4965683082261978
1.4965674785404475
1.496567539418769
1.4965674784880629
1.4965674851950017
1.4965674784880629
1.496567539418769
1.4965674785404475
1.4965683082261978
1.4965674794879789
1.4965756495539584
1.496567491917479
1.4966223568305108
1.496567596405521
1.4968019048288939
1.4965680453122692
1.4971699262787002
1.4965686679694923
1.4976156441381949
1.4965666519940852
1.5
1.6471902438771644
1.6482626792997002
1.6471921111495444
1.6478161299083369
1.6471915195791083
1.647418621374209
1.6471911117859492
1.647239555714173
1.6471910260603773
1.6471975601450515