# vtk DataFile Version 3.0
Euler density step 60
ASCII
DATASET STRUCTURED_POINTS
DIMENSIONS 32 32 32
ORIGIN 0 0 0
SPACING 0.3125 0.3125 0.3125
POINT_DATA 32768
SCALARS density double 1
LOOKUP_TABLE default
1.0004793925676445
1.0004512383534343
1.0004793931638265
1.0004787807342963
1.0004793930025642
1.0004793862783894
1.0004793930014477
1.0004793929587497
1.0004793930014428
1.0004793930012723
1.0004793930014428
1.0004793930014426
1.0004793930014428
1.0004793930014428
1.0004793930014428
1.0004793930014428
1.0004793930014428
1.0004793930014428
1.0004793930014428
1.0004793930014426
1.0004793930014428
1.0004793930012723
1.0004793930014428
1.0004793929587497
1.0004793930014477
1.0004793862783894
1.0004793930025642
1.0004787807342963
1.0004793931638265
1.0004512383534343
1.0004793925676445
1.0000453978687025
1.0000848935641202
1.0000848979994819
1.0000848935641362
1.000084893736872
1.0000848935641495
1.0000848935665874
1.0000848935641495
1.0000848935641675
1.0000848935641495
1.0000848935641498
1.0000848935641495
1.0000848935641495
1.0000848935641495
1.0000848935641495
1.0000848935641495
1.0000848935641495
1.0000848935641495
1.0000848935641495
1.0000848935641495
1.0000848935641495
1.0000848935641495
1.0000848935641498
1.0000848935641495
1.0000848935641675
1.0000848935641495
1.0000848935665874
1.0000848935641495
1.000084893736872
1.0000848935641362
1.0000848979994819
1.0000848935641202
1.0000848110417238
1.0001871347821045
1.0001859254995742
1.0001871348281439
1.0001871150247088
1.0001871348273397
1.0001871346602003
1.0001871348273321
1.0001871348264999
1.0001871348273321
1.0001871348273297
1.0001871348273321
1.0001871348273321
1.0001871348273321
1.0001871348273321
1.0001871348273321
1.0001871348273321
1.0001871348273321
1.0001871348273321
1.0001871348273321
1.0001871348273321
1.0001871348273321
1.0001871348273297
1.0001871348273321
1.0001871348264999
1.0001871348273321
1.0001871346602003
1.0001871348273397
1.0001871150247088
1.0001871348281439
1.0001859254995742
1.0001871347821045
1.0001584362191025
1.0002958566284148
1.0002958702929829
1.0002958566284115
1.000295856942949
1.0002958566284115
1.0002958566320506
1.0002958566284115
1.0002958566284352
1.0002958566284115
1.0002958566284115
1.0002958566284115
1.0002958566284115
1.0002958566284115
1.0002958566284115
1.0002958566284115
1.0002958566284115
1.0002958566284115
1.0002958566284115
1.0002958566284115
1.0002958566284115
1.0002958566284115
1.0002958566284115
1.0002958566284115
1.0002958566284352
1.0002958566284115
1.0002958566320506
1.0002958566284115
1.000295856942949
1.0002958566284115
1.0002958702929829
1.0002958566284148
1.0002959571135133
1.000553213648129
1.0005532178187275
1.0005532136484334
1.0005532139478583
1.0005532136484316
1.0005532136531134
1.0005532136484316
1.0005532136484667
1.0005532136484316
1.0005532136484316
1.0005532136484316
1.0005532136484316
1.0005532136484316
1.0005532136484316
1.0005532136484316
1.0005532136484316
1.0005532136484316
1.0005532136484316
1.0005532136484316
1.0005532136484316
1.0005532136484316
1.0005532136484316
1.0005532136484316
1.0005532136484667
1.0005532136484316
1.0005532136531134
1.0005532136484316
1.0005532139478583
1.0005532136484334
1.0005532178187275
1.000553213648129
1.0005527786369237
1.0010318737130546
1.0010319178685609
1.0010318737130572
1.0010318747170042
1.0010318737130568
1.0010318737245805
1.0010318737130568
1.0010318737131332
1.0010318737130568
1.0010318737130572
1.0010318737130568
1.0010318737130568
1.0010318737130568
1.0010318737130568
1.0010318737130568
1.0010318737130568
1.0010318737130568
1.0010318737130568
1.0010318737130568
1.0010318737130568
1.0010318737130568
1.0010318737130572
1.0010318737130568
1.0010318737131332
1.0010318737130568
1.0010318737245805
1.0010318737130568
1.0010318747170042
1.0010318737130572
1.0010319178685609
1.0010318737130546
1.001032231036755
1.001926071559248
1.0019261526181085
1.0019260715592571
1.0019260733993496
1.0019260715592557
1.0019260715803369
1.0019260715592557
1.0019260715593956
1.0019260715592557
1.0019260715592559
1.0019260715592557
1.0019260715592557
1.0019260715592557
1.0019260715592557
1.0019260715592557
1.0019260715592557
1.0019260715592557
1.0019260715592557
1.0019260715592557
1.0019260715592557
1.0019260715592557
1.0019260715592559
1.0019260715592557
1.0019260715593956
1.0019260715592557
1.0019260715803369
1.0019260715592557
1.0019260733993496
1.0019260715592571
1.0019261526181085
1.001926071559248
1.0019267346633276
1.0035923463714567
1.0035924964027534
1.0035923463714795
1.0035923497645094
1.0035923463714755
1.003592346410233
1.0035923463714755
1.0035923463717318
1.0035923463714755
1.0035923463714767
1.0035923463714755
1.0035923463714755
1.0035923463714755
1.0035923463714755
1.0035923463714755
1.0035923463714755
1.0035923463714755
1.0035923463714755
1.0035923463714755
1.0035923463714755
1.0035923463714755
1.0035923463714767
1.0035923463714755
1.0035923463717318
1.0035923463714755
1.003592346410233
1.0035923463714755
1.0035923497645094
1.0035923463714795
1.0035924964027534
1.0035923463714567
1.0035936025814203
1.0066904918888744
1.0066907688866844
1.0066904918889539
1.0066904981322129
1.0066904918889379
1.0066904919600161
1.0066904918889377
1.0066904918894064
1.0066904918889377
1.0066904918889397
1.0066904918889377
1.0066904918889377
1.0066904918889377
1.0066904918889377
1.0066904918889377
1.0066904918889377
1.0066904918889377
1.0066904918889377
1.0066904918889377
1.0066904918889377
1.0066904918889377
1.0066904918889397
1.0066904918889377
1.0066904918894064
1.0066904918889377
1.0066904919600161
1.0066904918889379
1.0066904981322129
1.0066904918889539
1.0066907688866844
1.0066904918888744
1.006692850924285
1.0124272036741644
1.0124277126883623
1.0124272036744209
1.0124272150841325
1.012427203674366
1.0124272038035456
1.0124272036743656
1.0124272036752129
1.0124272036743656
1.0124272036743689
1.0124272036743656
1.0124272036743656
1.0124272036743656
1.0124272036743656
1.0124272036743656
1.0124272036743656
1.0124272036743656
1.0124272036743656
1.0124272036743656
1.0124272036743656
1.0124272036743656
1.0124272036743689
1.0124272036743656
1.0124272036752129
1.0124272036743656
1.0124272038035456
1.012427203674366
1.0124272150841325
1.0124272036744209
1.0124277126883623
1.0124272036741644
1.0124316508531859
1.022968923121838
1.0229698490162755
1.0229689231226229
1.0229689436775375
1.0229689231224424
1.0229689233528882
1.0229689231224404
1.0229689231239385
1.0229689231224404
1.0229689231224466
1.0229689231224404
1.0229689231224404
1.0229689231224404
1.0229689231224404
1.0229689231224404
1.0229689231224404
1.0229689231224404
1.0229689231224404
1.0229689231224404
1.0229689231224404
1.0229689231224404
1.0229689231224466
1.0229689231224404
1.0229689231239385
1.0229689231224404
1.0229689233528882
1.0229689231224424
1.0229689436775375
1.0229689231226229
1.0229698490162755
1.022968923121838
1.0229773699100257
1.0420714829555884
1.0420731370714331
1.042071482957817
1.0420715190583194
1.0420714829572475
1.0420714833549671
1.0420714829572433
1.0420714829597826
1.0420714829572431
1.042071482957253
1.0420714829572431
1.0420714829572435
1.0420714829572431
1.0420714829572431
1.0420714829572431
1.0420714829572431
1.0420714829572431
1.0420714829572431
1.0420714829572431
1.0420714829572435
1.0420714829572431
1.042071482957253
1.0420714829572431
1.0420714829597826
1.0420714829572433
1.0420714833549671
1.0420714829572475
1.0420715190583194
1.042071482957817
1.0420731370714331
1.0420714829555884
1.0420877279156189
1.0758264573590517
1.0758293263114653
1.0758264573647052
1.0758265181654039
1.0758264573630334
1.0758264580128654
1.0758264573630212
1.075826457367042
1.0758264573630212
1.0758264573630369
1.0758264573630212
1.0758264573630212
1.0758264573630212
1.0758264573630212
1.0758264573630212
1.0758264573630212
1.0758264573630212
1.0758264573630212
1.0758264573630212
1.0758264573630212
1.0758264573630212
1.0758264573630369
1.0758264573630212
1.075826457367042
1.0758264573630212
1.0758264580128654
1.0758264573630334
1.0758265181654039
1.0758264573647052
1.0758293263114653
1.0758264573590517
1.0758581800212434
1.1329019482536515
1.1329066965240169
1.1329019482660636
1.1329020441656874
1.1329019482616771
1.13290194923674
1.1329019482616469
1.1329019482673812
1.1329019482616469
1.1329019482616682
1.1329019482616469
1.1329019482616469
1.1329019482616469
1.1329019482616469
1.1329019482616469
1.1329019482616469
1.1329019482616469
1.1329019482616469
1.1329019482616469
1.1329019482616469
1.1329019482616469
1.1329019482616682
1.1329019482616469
1.1329019482673812
1.1329019482616469
1.13290194923674
1.1329019482616771
1.1329020441656874
1.1329019482660636
1.1329066965240169
1.1329019482536515
1.1329642401978293
1.2225815983231527
1.2225889022728171
1.222581598346018
1.2225817355702093
1.2225815983363491
1.2225815996308853
1.2225815983362889
1.222581598343343
1.2225815983362887
1.2225815983363133
1.2225815983362887
1.2225815983362887
1.2225815983362887
1.2225815983362887
1.2225815983362887
1.2225815983362887
1.2225815983362887
1.2225815983362887
1.2225815983362887
1.2225815983362887
1.2225815983362887
1.2225815983363133
1.2225815983362887
1.222581598343343
1.2225815983362889
1.2225815996308853
1.2225815983363491
1.2225817355702093
1.222581598346018
1.2225889022728171
1.2225815983231527
1.2227001388253087
1.348440623539316
1.3484506826742078
1.3484406235733502
1.3484407954332787
1.348440623556771
1.3484406250269922
1.3484406235566773
1.348440623563933
1.3484406235566773
1.3484406235566995
1.3484406235566773
1.3484406235566773
1.3484406235566773
1.3484406235566773
1.3484406235566773
1.3484406235566773
1.3484406235566773
1.3484406235566773
1.3484406235566773
1.3484406235566773
1.3484406235566773
1.3484406235566995
1.3484406235566773
1.348440623563933
1.3484406235566773
1.3484406250269922
1.348440623556771
1.3484407954332787
1.3484406235733502
1.3484506826742078
1.348440623539316
1.3486451353339457
1.4997023395805997
1.4997142515491462
1.4997023396197149
1.4997025228269281
1.4997023395990694
1.4997023410067003
1.4997023395989673
1.4997023396052007
1.499702339598967
1.4997023395989846
1.499702339598967
1.499702339598967
1.499702339598967
1.499702339598967
1.499702339598967
1.499702339598967
1.499702339598967
1.499702339598967
1.499702339598967
1.499702339598967
1.499702339598967
1.4997023395989846
1.499702339598967
1.4997023396052007
1.4997023395989673
1.4997023410067003
1.4997023395990694
1.4997025228269281
1.4997023396197149
1.4997142515491462
1.4997023395805997
1.5
1.6510053547728252
1.6510171788523482
1.6510053548070212
1.6510055198164164
1.6510053547888783
1.6510053559376252
1.6510053547887984
1.6510053547934049
1.6510053547887982
1.6510053547888102
1.6510053547887982
1.6510053547887982
1.6510053547887982
1.6510053547887982
1.6510053547887982
1.6510053547887982
1.6510053547887982
1.6510053547887982
1.6510053547887982
1.6510053547887982
1.6510053547887982
1.6510053547888102
1.6510053547887982
1.6510053547934049
1.6510053547887984
1.6510053559376252
1.6510053547888783
1.6510055198164164
1.6510053548070212
1.6510171788523482
1.6510053547728252
1.6513548646660543
1.7769700963754502
1.7769799566484001
1.7769700963989301
1.7769702238656422
1.7769700963874264
1.7769700972091051
1.77697009638738
1.7769700963904316
1.7769700963873798
1.7769700963873867
1.7769700963873798
1.7769700963873798
1.7769700963873798
1.7769700963873798
1.7769700963873798
1.7769700963873798
1.7769700963873798
1.7769700963873798
1.7769700963873798
1.7769700963873798
1.7769700963873798
1.7769700963873867
1.7769700963873798
1.7769700963904316
1.77697009638738
1.7769700972091051
1.7769700963874264
1.7769702238656422
1.7769700963989301
1.7769799566484001
1.7769700963754502
1.7772998611746911
1.8667781303859037
1.8667852244986851
1.8667781303991557
1.8667782173625569
1.8667781303935758
1.8667781309253717
1.8667781303935549
1.8667781303954287
1.8667781303935549
1.8667781303935584
1.8667781303935549
1.8667781303935549
1.8667781303935549
1.8667781303935549
1.8667781303935549
1.8667781303935549
1.8667781303935549
1.8667781303935549
1.8667781303935549
1.8667781303935549
1.8667781303935549
1.8667781303935584
1.8667781303935549
1.8667781303954287
1.8667781303935549
1.8667781309253717
1.8667781303935758
1.8667782173625569
1.8667781303991557
1.8667852244986851
1.8667781303859037
1.8670357598021707
1.9239671601628143
1.9239717317591767
1.9239671601691328
1.923967214344916
1.9239671601669102
1.9239671604874438
1.9239671601669013
1.9239671601679942
1.9239671601669013
1.9239671601669042
1.9239671601669013
1.9239671601669013
1.9239671601669013
1.9239671601669013
1.9239671601669013
1.9239671601669013
1.9239671601669013
1.9239671601669013
1.9239671601669013
1.9239671601669013
1.9239671601669013
1.9239671601669042
1.9239671601669013
1.9239671601679942
1.9239671601669013
1.9239671604874438
1.9239671601669102
1.923967214344916
1.9239671601691328
1.9239717317591767
1.9239671601628143
1.9241418199787566
1.957804667693531
1.9578074026947532
1.9578046676961234
1.9578046994519511
1.9578046676953473
1.9578046678795966
1.9578046676953449
1.9578046676959611
1.9578046676953449
1.9578046676953458
1.9578046676953449
1.9578046676953449
1.9578046676953449
1.9578046676953449
1.9578046676953449
1.9578046676953449
1.9578046676953449
1.9578046676953449
1.9578046676953449
1.9578046676953449
1.9578046676953449
1.9578046676953458
1.9578046676953449
1.9578046676959611
1.9578046676953449
1.9578046678795966
1.9578046676953473
1.9578046994519511
1.9578046676961234
1.9578074026947532
1.957804667693531
1.9579122720843811
1.9769601877143865
1.9769617497895722
1.9769601877153269
1.9769602056385256
1.9769601877150771
1.976960187817919
1.9769601877150764
1.9769601877154168
1.9769601877150764
1.9769601877150771
1.9769601877150764
1.9769601877150764
1.9769601877150764
1.9769601877150764
1.9769601877150764
1.9769601877150764
1.9769601877150764
1.9769601877150764
1.9769601877150764
1.9769601877150764
1.9769601877150764
1.9769601877150771
1.9769601877150764
1.9769601877154168
1.9769601877150764
1.976960187817919
1.9769601877150771
1.9769602056385256
1.9769601877153269
1.9769617497895722
1.9769601877143865
1.9770226300899743
1.9875333788039999
1.9875342471928044
1.9875333788043128
1.987533388702007
1.9875333788042364
1.987533378860681
1.9875333788042362
1.987533378804422
1.9875333788042362
1.9875333788042364
1.9875333788042362
1.9875333788042362
1.9875333788042362
1.9875333788042362
1.9875333788042362
1.9875333788042362
1.9875333788042362
1.9875333788042362
1.9875333788042362
1.9875333788042362
1.9875333788042362
1.9875333788042364
1.9875333788042362
1.987533378804422
1.9875333788042362
1.987533378860681
1.9875333788042364
1.987533388702007
1.9875333788043128
1.9875342471928044
1.9875333788039999
1.9875683491468141
1.9932879598817079
1.9932884357767344
1.9932879598818058
1.9932879652866164
1.9932879598817828
1.9932879599125066
1.9932879598817825
1.9932879598818831
1.9932879598817825
1.993287959881783
1.9932879598817825
1.9932879598817825
1.9932879598817825
1.9932879598817825
1.9932879598817825
1.9932879598817825
1.9932879598817825
1.9932879598817825
1.9932879598817825
1.9932879598817825
1.9932879598817825
1.993287959881783
1.9932879598817825
1.9932879598818831
1.9932879598817825
1.9932879599125066
1.9932879598817828
1.9932879652866164
1.9932879598818058
1.9932884357767344
1.9932879598817079
1.993307149075715
1.9963959859083464
1.996396245245754
1.9963959859083757
1.9963959888485223
1.9963959859083691
1.99639598592506
1.9963959859083691
1.9963959859084233
1.9963959859083691
1.9963959859083691
1.9963959859083691
1.9963959859083691
1.9963959859083691
1.9963959859083691
1.9963959859083691
1.9963959859083691
1.9963959859083691
1.9963959859083691
1.9963959859083691
1.9963959859083691
1.9963959859083691
1.9963959859083691
1.9963959859083691
1.9963959859084233
1.9963959859083691
1.99639598592506
1.9963959859083691
1.9963959888485223
1.9963959859083757
1.996396245245754
1.9963959859083464
1.9964063974185799
1.9980678311131355
1.9980679695379382
1.9980678311131672
1.9980678326960508
1.9980678311131643
1.9980678311221927
1.9980678311131643
1.9980678311131945
1.9980678311131643
1.9980678311131643
1.9980678311131643
1.9980678311131643
1.9980678311131643
1.9980678311131643
1.9980678311131643
1.9980678311131643
1.9980678311131643
1.9980678311131643
1.9980678311131643
1.9980678311131643
1.9980678311131643
1.9980678311131643
1.9980678311131643
1.9980678311131945
1.9980678311131643
1.9980678311221927
1.9980678311131643
1.9980678326960508
1.9980678311131672
1.9980679695379382
1.9980678311131355
1.9980732653366724
1.9989647500745455
1.9989648279871148
1.9989647500745478
1.9989647509575268
1.9989647500745469
1.9989647500795613
1.9989647500745469
1.9989647500745631
1.9989647500745469
1.9989647500745471
1.9989647500745469
1.9989647500745469
1.9989647500745469
1.9989647500745469
1.9989647500745469
1.9989647500745469
1.9989647500745469
1.9989647500745469
1.9989647500745469
1.9989647500745469
1.9989647500745469
1.9989647500745471
1.9989647500745469
1.9989647500745631
1.9989647500745469
1.9989647500795613
1.9989647500745469
1.9989647509575268
1.9989647500745478
1.9989648279871148
1.9989647500745455
1.9989677689632452
1.9994609723128478
1.9994606631734302
1.9994609723190802
1.9994609697652408
1.9994609723190173
1.9994609723083563
1.9994609723190169
1.9994609723189907
1.9994609723190169
1.9994609723190169
1.9994609723190169
1.9994609723190169
1.9994609723190169
1.9994609723190169
1.9994609723190169
1.9994609723190169
1.9994609723190169
1.9994609723190169
1.9994609723190169
1.9994609723190169
1.9994609723190169
1.9994609723190169
1.9994609723190169
1.9994609723189907
1.9994609723190169
1.9994609723083563
1.9994609723190173
1.9994609697652408
1.9994609723190802
1.9994606631734302
1.9994609723128478
1.9994472213630763
1.9997031154064457
1.9997031437632919
1.9997031154064433
1.9997031157339924
1.9997031154064457
1.999703115408326
1.9997031154064457
1.9997031154064517
1.9997031154064457
1.9997031154064457
1.9997031154064457
1.9997031154064457
1.9997031154064457
1.9997031154064457
1.9997031154064457
1.9997031154064457
1.9997031154064457
1.9997031154064457
1.9997031154064457
1.9997031154064457
1.9997031154064457
1.9997031154064457
1.9997031154064457
1.9997031154064517
1.9997031154064457
1.999703115408326
1.9997031154064457
1.9997031157339924
1.9997031154064433
1.9997031437632919
1.9997031154064457
1.999704042886487
2.0003298991970833
2.0003147225711486
2.0003298992374625
2.0003297225023773
2.0003298992131624
2.0003298981933786
2.0003298992130736
2.0003298992096932
2.0003298992130736
2.0003298992130665
2.0003298992130736
2.0003298992130736
2.0003298992130736
2.0003298992130736
2.0003298992130736
2.0003298992130736
2.0003298992130736
2.0003298992130736
2.0003298992130736
2.0003298992130736
2.0003298992130736
2.0003298992130665
2.0003298992130736
2.0003298992096932
2.0003298992130736
2.0003298981933786
2.0003298992131624
2.0003297225023773
2.0003298992374625
2.0003147225711486
2.0003298991970833
1.9998415637808975
1.9999151889582765
1.9999151889582765
1.9999151889582765
1.9999151889582765
1.9999151889582765
1.9999151889582765
1.9999151889582765
1.9999151889582765
1.9999151889582765
1.9999151889582765
1.9999151889582765
1.9999151889582765
1.9999151889582765
1.9999151889582765
1.9999151889582765
1.9999151889582765
1.9999151889582765
1.9999151889582765
1.9999151889582765
1.9999151889582765
1.9999151889582765
1.9999151889582765
1.9999151889582765
1.9999151889582765
1.9999151889582765
1.9999151889582765
1.9999151889582765
1.9999151889582765
1.9999151889582765
1.9999151889582765
1.9999151889582765
1.9999151889582765
1.0016734409516588
1.0016106609691242
1.0016734425598539
1.0016718690508877
1.0016734416142288
1.0016734219232588
1.0016734416062072
1.0016734414642687
1.0016734416061681
1.0016734416055246
1.0016734416061679
1.0016734416061659
1.0016734416061679
1.0016734416061679
1.0016734416061679
1.0016734416061679
1.0016734416061679
1.0016734416061679
1.0016734416061679
1.0016734416061659
1.0016734416061679
1.0016734416055246
1.0016734416061681
1.0016734414642687
1.0016734416062072
1.0016734219232588
1.0016734416142288
1.0016718690508877
1.0016734425598539
1.0016106609691242
1.0016734409516588
1.0000453978687025
1.0000856223383765
1.0000855851348682
1.0000856223386108
1.000085621516239
1.0000856223385022
1.00008562232901
1.0000856223385002
1.000085622338436
1.0000856223385002
1.0000856223385
1.0000856223385002
1.0000856223385002
1.0000856223385002
1.0000856223385002
1.0000856223385002
1.0000856223385002
1.0000856223385002
1.0000856223385002
1.0000856223385002
1.0000856223385002
1.0000856223385002
1.0000856223385
1.0000856223385002
1.000085622338436
1.0000856223385002
1.00008562232901
1.0000856223385022
1.000085621516239
1.0000856223386108
1.0000855851348682
1.0000856223383765
1.0000848110417238
1.0002224538225908
1.000219340682075
1.0002224540743749
1.000222395848924
1.0002224540684757
1.0002224535088573
1.0002224540684075
1.0002224540652322
1.0002224540684073
1.0002224540683957
1.0002224540684073
1.000222454068407
1.0002224540684073
1.0002224540684073
1.0002224540684073
1.0002224540684073
1.0002224540684073
1.0002224540684073
1.0002224540684073
1.000222454068407
1.0002224540684073
1.0002224540683957
1.0002224540684073
1.0002224540652322
1.0002224540684075
1.0002224535088573
1.0002224540684757
1.000222395848924
1.0002224540743749
1.000219340682075
1.0002224538225908
1.0001584362191025
1.0002954630490302
1.0002954807098268
1.0002954630490672
1.0002954634606416
1.0002954630490664
1.0002954630538377
1.0002954630490664
1.0002954630490977
1.0002954630490664
1.0002954630490664
1.0002954630490664
1.0002954630490664
1.0002954630490664
1.0002954630490664
1.0002954630490664
1.0002954630490664
1.0002954630490664
1.0002954630490664
1.0002954630490664
1.0002954630490664
1.0002954630490664
1.0002954630490664
1.0002954630490664
1.0002954630490977
1.0002954630490664
1.0002954630538377
1.0002954630490664
1.0002954634606416
1.0002954630490672
1.0002954807098268
1.0002954630490302
1.0002959571135133
1.0005533801941249
1.0005533581604826
1.0005533801961966
1.0005533801868054
1.0005533801961779
1.0005533801993258
1.0005533801961775
1.0005533801962112
1.0005533801961775
1.0005533801961779
1.0005533801961775
1.0005533801961775
1.0005533801961775
1.0005533801961775
1.0005533801961775
1.0005533801961775
1.0005533801961775
1.0005533801961775
1.0005533801961775
1.0005533801961775
1.0005533801961775
1.0005533801961779
1.0005533801961775
1.0005533801962112
1.0005533801961775
1.0005533801993258
1.0005533801961779
1.0005533801868054
1.0005533801961966
1.0005533581604826
1.0005533801941249
1.0005527786369237
1.0010303469029755
1.0010304153418303
1.0010303469029802
1.0010303484596155
1.0010303469029793
1.0010303469207824
1.0010303469029793
1.0010303469030972
1.0010303469029793
1.0010303469029795
1.0010303469029793
1.0010303469029793
1.0010303469029793
1.0010303469029793
1.0010303469029793
1.0010303469029793
1.0010303469029793
1.0010303469029793
1.0010303469029793
1.0010303469029793
1.0010303469029793
1.0010303469029795
1.0010303469029793
1.0010303469030972
1.0010303469029793
1.0010303469207824
1.0010303469029793
1.0010303484596155
1.0010303469029802
1.0010304153418303
1.0010303469029755
1.001032231036755
1.001923237202476
1.0019233642146914
1.0019232372025018
1.0019232400970304
1.0019232372024984
1.0019232372356339
1.0019232372024984
1.0019232372027169
1.0019232372024984
1.0019232372024993
1.0019232372024984
1.0019232372024984
1.0019232372024984
1.0019232372024984
1.0019232372024984
1.0019232372024984
1.0019232372024984
1.0019232372024984
1.0019232372024984
1.0019232372024984
1.0019232372024984
1.0019232372024993
1.0019232372024984
1.0019232372027169
1.0019232372024984
1.0019232372356339
1.0019232372024984
1.0019232400970304
1.0019232372025018
1.0019233642146914
1.001923237202476
1.0019267346633276
1.0035870480730082
1.0035872851880634
1.0035870480730611
1.0035870534592546
1.0035870480730491
1.0035870481345861
1.0035870480730489
1.0035870480734548
1.0035870480730489
1.0035870480730509
1.0035870480730489
1.0035870480730489
1.0035870480730489
1.0035870480730489
1.0035870480730489
1.0035870480730489
1.0035870480730489
1.0035870480730489
1.0035870480730489
1.0035870480730489
1.0035870480730489
1.0035870480730509
1.0035870480730489
1.0035870480734548
1.0035870480730489
1.0035870481345861
1.0035870480730491
1.0035870534592546
1.0035870480730611
1.0035872851880634
1.0035870480730082
1.0035936025814203
1.0066806661159422
1.0066811048835744
1.0066806661161161
1.0066806760596765
1.0066806661160739
1.006680666229407
1.0066806661160734
1.0066806661168191
1.0066806661160734
1.006680666116077
1.0066806661160734
1.0066806661160734
1.0066806661160734
1.0066806661160734
1.0066806661160734
1.0066806661160734
1.0066806661160734
1.0066806661160734
1.0066806661160734
1.0066806661160734
1.0066806661160734
1.006680666116077
1.0066806661160734
1.0066806661168191
1.0066806661160734
1.006680666229407
1.0066806661160739
1.0066806760596765
1.0066806661161161
1.0066811048835744
1.0066806661159422
1.006692850924285
1.0124090915532167
1.0124098971838136
1.0124090915537673
1.012409109727531
1.0124090915536248
1.0124090917597768
1.0124090915536235
1.0124090915549755
1.0124090915536235
1.0124090915536292
1.0124090915536235
1.0124090915536235
1.0124090915536235
1.0124090915536235
1.0124090915536235
1.0124090915536235
1.0124090915536235
1.0124090915536235
1.0124090915536235
1.0124090915536235
1.0124090915536235
1.0124090915536292
1.0124090915536235
1.0124090915549755
1.0124090915536235
1.0124090917597768
1.0124090915536248
1.012409109727531
1.0124090915537673
1.0124098971838136
1.0124090915532167
1.0124316508531859
1.0229359014125374
1.022937360829421
1.0229359014141715
1.0229359340544761
1.0229359014137061
1.0229359017806658
1.0229359014137025
1.0229359014160859
1.0229359014137025
1.0229359014137125
1.0229359014137025
1.0229359014137025
1.0229359014137025
1.0229359014137025
1.0229359014137025
1.0229359014137025
1.0229359014137025
1.0229359014137025
1.0229359014137025
1.0229359014137025
1.0229359014137025
1.0229359014137125
1.0229359014137025
1.0229359014160859
1.0229359014137025
1.0229359017806658
1.0229359014137061
1.0229359340544761
1.0229359014141715
1.022937360829421
1.0229359014125374
1.0229773699100257
1.0420124398854986
1.0420150244959574
1.0420124398899018
1.0420124967989701
1.0420124398884618
1.0420124405179465
1.042012439888452
1.0420124398924733
1.0420124398884516
1.0420124398884674
1.0420124398884516
1.042012439888452
1.0420124398884516
1.0420124398884516
1.0420124398884516
1.0420124398884516
1.0420124398884516
1.0420124398884516
1.0420124398884516
1.042012439888452
1.0420124398884516
1.0420124398884674
1.0420124398884516
1.0420124398924733
1.042012439888452
1.0420124405179465
1.0420124398884618
1.0420124967989701
1.0420124398899018
1.0420150244959574
1.0420124398854986
1.0420877279156189
1.075724399355267
1.0757288117991599
1.0757243993656398
1.075724493886558
1.0757243993615422
1.0757244003775532
1.075724399361514
1.0757243993678167
1.075724399361514
1.0757243993615384
1.075724399361514
1.075724399361514
1.075724399361514
1.075724399361514
1.075724399361514
1.075724399361514
1.075724399361514
1.075724399361514
1.075724399361514
1.075724399361514
1.075724399361514
1.0757243993615384
1.075724399361514
1.0757243993678167
1.075724399361514
1.0757244003775532
1.0757243993615422
1.075724493886558
1.0757243993656398
1.0757288117991599
1.075724399355267
1.0758581800212434
1.1327353111108471
1.1327424215862956
1.1327353111315921
1.132735456606595
1.1327353111213994
1.1327353126121356
1.1327353111213305
1.1327353111301373
1.1327353111213303
1.1327353111213629
1.1327353111213303
1.1327353111213303
1.1327353111213303
1.1327353111213303
1.1327353111213303
1.1327353111213303
1.1327353111213303
1.1327353111213303
1.1327353111213303
1.1327353111213303
1.1327353111213303
1.1327353111213629
1.1327353111213303
1.1327353111301373
1.1327353111213305
1.1327353126121356
1.1327353111213994
1.132735456606595
1.1327353111315921
1.1327424215862956
1.1327353111108471
1.1329642401978293
1.2223333411096315
1.22234382774617
1.2223333411442954
1.2223335410787974
1.2223333411236479
1.2223333430284467
1.2223333411235191
1.2223333411339705
1.2223333411235189
1.2223333411235551
1.2223333411235189
1.2223333411235191
1.2223333411235189
1.2223333411235189
1.2223333411235189
1.2223333411235189
1.2223333411235189
1.2223333411235189
1.2223333411235189
1.2223333411235191
1.2223333411235189
1.2223333411235551
1.2223333411235189
1.2223333411339705
1.2223333411235191
1.2223333430284467
1.2223333411236479
1.2223335410787974
1.2223333411442954
1.22234382774617
1.2223333411096315
1.2227001388253087
1.3481177218368763
1.348131320113193
1.3481177218838272
1.3481179577199089
1.3481177218524136
1.3481177238917132
1.3481177218522364
1.3481177218623832
1.3481177218522362
1.348117721852268
1.3481177218522362
1.3481177218522362
1.3481177218522362
1.3481177218522362
1.3481177218522362
1.3481177218522362
1.3481177218522362
1.3481177218522362
1.3481177218522362
1.3481177218522362
1.3481177218522362
1.348117721852268
1.3481177218522362
1.3481177218623832
1.3481177218522364
1.3481177238917132
1.3481177218524136
1.3481179577199089
1.3481177218838272
1.348131320113193
1.3481177218368763
1.3486451353339457
1.4993503909939052
1.4993653439665069
1.499350391043216
1.499350624081895
1.4993503910093406
1.4993503928171694
1.4993503910091708
1.4993503910172357
1.4993503910091699
1.499350391009193
1.4993503910091699
1.4993503910091701
1.4993503910091699
1.4993503910091699
1.4993503910091699
1.4993503910091699
1.4993503910091699
1.4993503910091699
1.4993503910091699
1.4993503910091701
1.4993503910091699
1.499350391009193
1.4993503910091699
1.4993503910172357
1.4993503910091708
1.4993503928171694
1.4993503910093406
1.499350624081895
1.499350391043216
1.4993653439665069
1.4993503909939052
1.5
1.6506898711399154
1.6507036392640084
1.6506898711799969
1.6506900653451655
1.6506898711541813
1.650689872515904
1.6506898711540645
1.6506898711595543
1.6506898711540643