# vtk DataFile Version 3.0
Euler density step 292
ASCII
DATASET STRUCTURED_POINTS
DIMENSIONS 32 32 32
ORIGIN 0 0 0
SPACING 0.3125 0.3125 0.3125
POINT_DATA 32768
SCALARS density double 1
LOOKUP_TABLE default
1.0057031202182665
1.0020010759518094
1.0057126703028507
1.0039762800095879
1.0057117770220618
1.0051648245606581
1.0057102517362455
1.0055997987019214
1.0057099033360275
1.0056950337418147
1.0057098658439703
1.0057084617596281
1.0057098633583388
1.0057097660382126
1.0057098632452939
1.0057098530674875
1.0057098632452939
1.0057097660382126
1.0057098633583388
1.0057084617596281
1.0057098658439703
1.0056950337418147
1.0057099033360275
1.0055997987019214
1.0057102517362455
1.0051648245606581
1.0057117770220618
1.0039762800095879
1.0057126703028507
1.0020010759518094
1.0057031202182665
1.0000453978687025
1.0000811289082854
1.0000857752836361
1.0000811145068083
1.0000834405568459
1.0000811132328173
1.0000819140446078
1.0000811148188118
1.0000812951026066
1.0000811152931455
1.0000811422875384
1.0000811153522526
1.0000811181647546
1.0000811153564257
1.0000811155699851
1.0000811153566074
1.0000811153809275
1.0000811153566074
1.0000811155699851
1.0000811153564257
1.0000811181647546
1.0000811153522526
1.0000811422875384
1.0000811152931455
1.0000812951026066
1.0000811148188118
1.0000819140446078
1.0000811132328173
1.0000834405568459
1.0000811145068083
1.0000857752836361
1.0000811289082854
1.0000848110417238
1.0049058150164478
1.0021251126159474
1.0049100604732686
1.0037219427088093
1.0049101091478365
1.0045873690863585
1.0049096651344833
1.004853639761969
1.0049095728243638
1.0049030225950917
1.0049095641236867
1.0049090210346987
1.0049095636212535
1.0049095302823114
1.004909563601998
1.0049095604897078
1.004909563601998
1.0049095302823114
1.0049095636212535
1.0049090210346987
1.0049095641236867
1.0049030225950917
1.0049095728243638
1.004853639761969
1.0049096651344833
1.0045873690863585
1.0049101091478365
1.0037219427088093
1.0049100604732686
1.0021251126159474
1.0049058150164478
1.0001584362191025
1.0002819163072192
1.0002902380718777
1.0002819179760158
1.0002853786752617
1.0002819171387116
1.0002829059977534
1.0002819171322699
1.0002821047247707
1.0002819171703594
1.0002819414581556
1.000281917175607
1.0002819194179109
1.0002819171759045
1.0002819173299748
1.0002819171759096
1.0002819171921018
1.0002819171759096
1.0002819173299748
1.0002819171759045
1.0002819194179109
1.000281917175607
1.0002819414581556
1.0002819171703594
1.0002821047247707
1.0002819171322699
1.0002829059977534
1.0002819171387116
1.0002853786752617
1.0002819179760158
1.0002902380718777
1.0002819163072192
1.0002959571135133
1.0030296930352129
1.0017149326390049
1.0030307467752659
1.0025648682354902
1.0030308376767836
1.0029272515631444
1.0030307861702508
1.0030158110408611
1.0030307759023016
1.0030292896319872
1.0030307750327501
1.0030306688487665
1.0030307749896361
1.0030307693163358
1.003030774988404
1.0030307745241709
1.003030774988404
1.0030307693163358
1.0030307749896361
1.0030306688487665
1.0030307750327501
1.0030292896319872
1.0030307759023016
1.0030158110408611
1.0030307861702508
1.0029272515631444
1.0030308376767836
1.0025648682354902
1.0030307467752659
1.0017149326390049
1.0030296930352129
1.0005527786369237
1.0009621498637244
1.0010002053974802
1.0009621521061014
1.0009759056489755
1.0009621521250784
1.0009654810459274
1.0009621520439902
1.0009626995050855
1.0009621520318475
1.0009622156043643
1.0009621520308294
1.0009621574554475
1.0009621520307588
1.0009621523836003
1.0009621520307548
1.0009621520665402
1.0009621520307548
1.0009621523836003
1.0009621520307588
1.0009621574554475
1.0009621520308294
1.0009622156043643
1.0009621520318475
1.0009626995050855
1.0009621520439902
1.0009654810459274
1.0009621521250784
1.0009759056489755
1.0009621521061014
1.0010002053974802
1.0009621498637244
1.001032231036755
1.0026040202781528
1.0022985937905606
1.0026041739141991
1.0025188908291298
1.0026041934360908
1.0025897886431552
1.0026041907790588
1.0026026699738233
1.0026041901660243
1.0026040891873127
1.0026041901182394
1.0026041863498416
1.0026041901163916
1.0026041901080263
1.0026041901163767
1.0026041901334322
1.0026041901163767
1.0026041901080263
1.0026041901163916
1.0026041863498416
1.0026041901182394
1.0026040891873127
1.0026041901660243
1.0026026699738233
1.0026041907790588
1.0025897886431552
1.0026041934360908
1.0025188908291298
1.0026041739141991
1.0022985937905606
1.0026040202781528
1.0019267346633276
1.0033805940125422
1.0034982680478481
1.0033806034903443
1.0034233174537099
1.0033806042071174
1.00339094396277
1.0033806037583768
1.0033823035152776
1.0033806036676054
1.0033808010862189
1.0033806036594284
1.0033806205168521
1.0033806036589554
1.0033806047564069
1.0033806036589346
1.003380603770325
1.0033806036589346
1.0033806047564069
1.0033806036589554
1.0033806205168521
1.0033806036594284
1.0033808010862189
1.0033806036676054
1.0033823035152776
1.0033806037583768
1.00339094396277
1.0033806042071174
1.0034233174537099
1.0033806034903443
1.0034982680478481
1.0033805940125422
1.0035936025814203
1.0065101216725179
1.0066375415738884
1.0065101573737012
1.006564892262737
1.0065101608355449
1.0065250151387091
1.0065101595918298
1.0065127797965243
1.0065101593242594
1.0065104771163593
1.0065101593002364
1.006510187180816
1.0065101592988883
1.0065101611455012
1.0065101592988339
1.0065101594883272
1.0065101592988339
1.0065101611455012
1.0065101592988883
1.006510187180816
1.0065101593002364
1.0065104771163593
1.0065101593242594
1.0065127797965243
1.0065101595918298
1.0065250151387091
1.0065101608355449
1.006564892262737
1.0065101573737012
1.0066375415738884
1.0065101216725179
1.006692850924285
1.0119057027416372
1.0122094792120944
1.0119057576604134
1.0120194707356971
1.0119057598599435
1.01193403767711
1.0119057562913563
1.0119104982997764
1.0119057555990145
1.011906314009023
1.0119057555364162
1.0119058036592532
1.0119057555327324
1.0119057586839864
1.011905755532571
1.0119057558534954
1.011905755532571
1.0119057586839864
1.0119057555327324
1.0119058036592532
1.0119057555364162
1.011906314009023
1.0119057555990145
1.0119104982997764
1.0119057562913563
1.01193403767711
1.0119057598599435
1.0120194707356971
1.0119057576604134
1.0122094792120944
1.0119057027416372
1.0124316508531859
1.0222212391261405
1.0226750152103536
1.0222213611037398
1.0223950525960948
1.0222213627651575
1.022265311919057
1.022221353584954
1.0222288062152227
1.0222213518468617
1.0222222351423247
1.0222213516898604
1.0222214280568149
1.0222213516805625
1.0222213566863265
1.0222213516801535
1.0222213521896557
1.0222213516801535
1.0222213566863265
1.0222213516805625
1.0222214280568149
1.0222213516898604
1.0222222351423247
1.0222213518468617
1.0222288062152227
1.022221353584954
1.022265311919057
1.0222213627651575
1.0223950525960948
1.0222213611037398
1.0226750152103536
1.0222212391261405
1.0229773699100257
1.0409819321407838
1.0416576674760956
1.0409821866297999
1.0412418952610654
1.0409821808559672
1.04104823229732
1.0409821587144898
1.0409933894996346
1.040982154661801
1.0409834856424933
1.0409821542982671
1.0409822690974582
1.0409821542766964
1.0409821617702812
1.0409821542757378
1.0409821550342884
1.0409821542757378
1.0409821617702812
1.0409821542766964
1.0409822690974582
1.0409821542982671
1.0409834856424933
1.040982154661801
1.0409933894996346
1.0409821587144898
1.04104823229732
1.0409821808559672
1.0412418952610654
1.0409821866297999
1.0416576674760956
1.0409819321407838
1.0420877279156189
1.0743315909357012
1.0752879775417792
1.074332094409246
1.0747018364942413
1.074332061074823
1.0744264463755617
1.0743320117390465
1.074348036216116
1.0743320030678782
1.0743338909340556
1.0743320023007641
1.0743321636418133
1.0743320022554368
1.0743320126653335
1.07433200225342
1.0743320032932937
1.07433200225342
1.0743320126653335
1.0743320022554368
1.0743321636418133
1.0743320023007641
1.0743338909340556
1.0743320030678782
1.074348036216116
1.0743320117390465
1.0744264463755617
1.074332061074823
1.0747018364942413
1.074332094409246
1.0752879775417792
1.0743315909357012
1.0758581800212434
1.1308840804468463
1.1321978154601455
1.1308850182230421
1.1313923692006354
1.1308849068043785
1.1310138526721654
1.1308848053797196
1.1309064552298109
1.130884788462301
1.130887296899197
1.1308847870024448
1.1308849969811965
1.1308847869174252
1.1308848001463763
1.1308847869136771
1.1308847882013193
1.1308847869136771
1.1308848001463763
1.1308847869174252
1.1308849969811965
1.1308847870024448
1.130887296899197
1.130884788462301
1.1309064552298109
1.1308848053797196
1.1310138526721654
1.1308849068043785
1.1313923692006354
1.1308850182230421
1.1321978154601455
1.1308840804468463
1.1329642401978293
1.2198709990907577
1.2216135805903432
1.2198726122662717
1.2205421516956962
1.2198723210139069
1.2200403505092794
1.219872131181549
1.2198997144750601
1.2198721015322358
1.219875202269485
1.219872099071321
1.2198723494557822
1.2198720989319396
1.2198721140781958
1.2198720989259284
1.2198721003367798
1.2198720989259284
1.2198721140781958
1.2198720989319396
1.2198723494557822
1.219872099071321
1.219875202269485
1.2198721015322358
1.2198997144750601
1.219872131181549
1.2200403505092794
1.2198723210139069
1.2205421516956962
1.2198726122662717
1.2216135805903432
1.2198709990907577
1.2227001388253087
1.3447906735325827
1.3469957863810496
1.3447931607662804
1.3456363834867469
1.3447925328110988
1.3450000700042928
1.3447922154352772
1.344825125420597
1.3447921695747005
1.3447957025633077
1.344792165971791
1.3447924361017947
1.3447921657769688
1.3447921811453998
1.3447921657689323
1.3447921671090832
1.3447921657689323
1.3447921811453998
1.3447921657769688
1.3447924361017947
1.344792165971791
1.3447957025633077
1.3447921695747005
1.344825125420597
1.3447922154352772
1.3450000700042928
1.3447925328110988
1.3456363834867469
1.3447931607662804
1.3469957863810496
1.3447906735325827
1.3486451353339457
1.4948736573353065
1.4975002529503216
1.4948770300692162
1.495878583953105
1.4948759244340009
1.4951154357944449
1.4948754679505794
1.4949116003419731
1.4948754079445434
1.4948790468278115
1.4948754035892435
1.4948756621861869
1.4948754033704739
1.4948754169555749
1.4948754033620915
1.4948754044517596
1.4948754033620915
1.4948754169555749
1.4948754033704739
1.4948756621861869
1.4948754035892435
1.4948790468278115
1.4948754079445434
1.4949116003419731
1.4948754679505794
1.4951154357944449
1.4948759244340009
1.495878583953105
1.4948770300692162
1.4975002529503216
1.4948736573353065
1.5
1.6450325548287947
1.6479565836390799
1.6450364419327683
1.6461372213078704
1.6450349557559751
1.6452862145834826
1.645034431725185
1.6450699075905557
1.6450343698998757
1.6450376790796661
1.6450343658256072
1.6450345823873522
1.645034365638455
1.645034376077906
1.645034365631878
1.6450343663990157
1.645034365631878
1.645034376077906
1.645034365638455
1.6450345823873522
1.6450343658256072
1.6450376790796661
1.6450343698998757
1.6450699075905557
1.645034431725185
1.6452862145834826
1.6450349557559751
1.6461372213078704
1.6450364419327683
1.6479565836390799
1.6450325548287947
1.6513548646660543
1.7703773703948884
1.773388540073477
1.7703810598089431
1.7714735018321126
1.7703795998101819
1.7706134267971883
1.7703791402035756
1.7704097945378823
1.7703790912851054
1.7703817373509196
1.7703790883455801
1.7703792484044274
1.7703790882213326
1.7703790953491063
1.7703790882172976
1.7703790887012372
1.7703790882172976
1.7703790953491063
1.7703790882213326
1.7703792484044274
1.7703790883455801
1.7703817373509196
1.7703790912851054
1.7704097945378823
1.7703791402035756
1.7706134267971883
1.7703795998101819
1.7714735018321126
1.7703810598089431
1.773388540073477
1.7703773703948884
1.7772998611746911
1.8603775403690432
1.8632005826657001
1.8603804495950944
1.8613462501626983
1.8603793732090328
1.8605718477235849
1.8603790587562714
1.8604025561337996
1.8603790280416319
1.8603809212240765
1.8603790263320095
1.8603791334531197
1.8603790262645359
1.860379030733452
1.8603790262624809
1.8603790265470821
1.8603790262624809
1.860379030733452
1.8603790262645359
1.8603791334531197
1.8603790263320095
1.8603809212240765
1.8603790280416319
1.8604025561337996
1.8603790587562714
1.8605718477235849
1.8603793732090328
1.8613462501626983
1.8603804495950944
1.8632005826657001
1.8603775403690432
1.8670357598021707
1.9184543099122453
1.920838418354166
1.9184562520460646
1.9192194666232107
1.918455623750839
1.9185977873385318
1.9184554483554519
1.9184717686230226
1.918455432337097
1.9184566756009274
1.9184554314972209
1.9184554982764934
1.9184554314658031
1.9184554341176308
1.9184554314648945
1.9184554316259739
1.9184554314648945
1.9184554341176308
1.9184554314658031
1.9184554982764934
1.9184554314972209
1.9184566756009274
1.918455432337097
1.9184717686230226
1.9184554483554519
1.9185977873385318
1.918455623750839
1.9192194666232107
1.9184562520460646
1.920838418354166
1.9184543099122453
1.9241418199787566
1.9535169810348205
1.9553384456771177
1.9535180964349577
1.9540654915426565
1.9535177915963133
1.953614005676136
1.9535177084130586
1.9535282203833531
1.9535177011898175
1.9535184683830848
1.9535177008277329
1.9535177404920581
1.9535177008147309
1.9535177023357269
1.95351770081437
1.9535177009037996
1.95351770081437
1.9535177023357269
1.9535177008147309
1.9535177404920581
1.9535177008277329
1.9535184683830848
1.9535177011898175
1.9535282203833531
1.9535177084130586
1.953614005676136
1.9535177915963133
1.9540654915426565
1.9535180964349577
1.9553384456771177
1.9535169810348205
1.9579122720843811
1.9739371972294164
1.975202329003227
1.9739377576933475
1.9742992330412614
1.9739376301680078
1.9739983760229072
1.9739375954634844
1.9739439911957544
1.9739375925557017
1.9739380451332427
1.9739375924146219
1.973937615200354
1.973937592409706
1.9739375932632024
1.9739375924095743
1.9739375924587061
1.9739375924095743
1.9739375932632024
1.973937592409706
1.973937615200354
1.9739375924146219
1.9739380451332427
1.9739375925557017
1.9739439911957544
1.9739375954634844
1.9739983760229072
1.9739376301680078
1.9742992330412614
1.9739377576933475
1.975202329003227
1.9739371972294164
1.9770226300899743
1.9855019515390833
1.9863334281941678
1.9855022033020848
1.9857287035640352
1.985502155310648
1.9855387954854753
1.9855021421553904
1.9855058893561519
1.9855021410820382
1.9855024002714072
1.9855021410312104
1.9855021538408615
1.9855021410294815
1.9855021415018523
1.985502141029434
1.9855021410562605
1.985502141029434
1.9855021415018523
1.9855021410294815
1.9855021538408615
1.9855021410312104
1.9855024002714072
1.9855021410820382
1.9855058893561519
1.9855021421553904
1.9855387954854753
1.985502155310648
1.9857287035640352
1.9855022033020848
1.9863334281941678
1.9855019515390833
1.9875683491468141
1.9923113953227731
1.9927258469742217
1.9923115093999724
1.992429008691875
1.992311494830391
1.9923309009102603
1.9923114902643679
1.9923134931410991
1.9923114898853176
1.9923116288531204
1.9923114898673311
1.9923114967352809
1.9923114898667214
1.9923114901195635
1.9923114898667058
1.9923114898810295
1.9923114898667058
1.9923114901195635
1.9923114898667214
1.9923114967352809
1.9923114898673311
1.9923116288531204
1.9923114898853176
1.9923134931410991
1.9923114902643679
1.9923309009102603
1.992311494830391
1.992429008691875
1.9923115093999724
1.9927258469742217
1.9923113953227731
1.993307149075715
1.9956264822634739
1.9959329121596348
1.9956265205919048
1.9957051093507634
1.9956265152247266
1.9956386391122085
1.9956265137042539
1.995627710757647
1.995626513584533
1.9956265942177329
1.9956265135790614
1.9956265174827752
1.9956265135788809
1.9956265137204647
1.9956265135788755
1.9956265135868061
1.9956265135788755
1.9956265137204647
1.9956265135788809
1.9956265174827752
1.9956265135790614
1.9956265942177329
1.995626513584533
1.995627710757647
1.9956265137042539
1.9956386391122085
1.9956265152247266
1.9957051093507634
1.9956265205919048
1.9959329121596348
1.9956264822634739
1.9964063974185799
1.9991566553457301
1.9987224014140621
1.9991568761259715
1.9990676560861464
1.9991568683695213
1.9991466053112577
1.9991568630236021
1.9991561419592063
1.9991568625242926
1.999156829761765
1.9991568624985041
1.9991568615208581
1.9991568624975913
1.9991568624797607
1.9991568624975671
1.9991568624973626
1.9991568624975671
1.9991568624797607
1.9991568624975913
1.9991568615208581
1.9991568624985041
1.999156829761765
1.9991568625242926
1.9991561419592063
1.9991568630236021
1.9991466053112577
1.9991568683695213
1.9990676560861464
1.9991568761259715
1.9987224014140621
1.9991566553457301
1.9980732653366724
1.9987075992995285
1.9988134214802207
1.9987076018278129
1.9987348793792228
1.998707601823861
1.9987118128558286
1.9987076019143473
1.9987080164005659
1.9987076019302628
1.9987076296981223
1.9987076019314294
1.9987076032667672
1.9987076019314798
1.9987076019795607
1.9987076019314816
1.9987076019341545
1.9987076019314816
1.9987076019795607
1.9987076019314798
1.9987076032667672
1.9987076019314294
1.9987076296981223
1.9987076019302628
1.9987080164005659
1.9987076019143473
1.9987118128558286
1.998707601823861
1.9987348793792228
1.9987076018278129
1.9988134214802207
1.9987075992995285
1.9989677689632452
2.0035084477943861
2.0015370296369341
2.0035100423261234
2.0029585582182152
2.0035097543764708
2.0034224970488648
2.0035096655023628
2.0035011512235901
2.0035096577754072
2.0035091022887692
2.0035096573859015
2.0035096316244716
2.0035096573719291
2.0035096564824357
2.0035096573715476
2.0035096573242801
2.0035096573715476
2.0035096564824357
2.0035096573719291
2.0035096316244716
2.0035096573859015
2.0035091022887692
2.0035096577754072
2.0035011512235901
2.0035096655023628
2.0034224970488648
2.0035097543764708
2.0029585582182152
2.0035100423261234
2.0015370296369341
2.0035084477943861
1.9994472213630763
1.9996408029261961
1.9996756321624198
1.9996407928118272
1.9996522744607146
1.9996407970654915
1.9996429883351472
1.9996407987002036
1.9996410537288554
1.9996407988932852
1.9996408183814767
1.9996407989056832
1.9996407999465164
1.9996407989062117
1.9996407989470215
1.9996407989062286
1.999640798908662
1.9996407989062286
1.9996407989470215
1.9996407989062117
1.9996407999465164
1.9996407989056832
1.9996408183814767
1.9996407988932852
1.9996410537288554
1.9996407987002036
1.9996429883351472
1.9996407970654915
1.9996522744607146
1.9996407928118272
1.9996756321624198
1.9996408029261961
1.999704042886487
2.0061926425838941
2.0028999800660752
2.0061976858101636
2.0050549073435859
2.006195339727713
2.00597136384707
2.0061947486054224
2.0061684182974298
2.0061946944756475
2.0061926754369521
2.0061946916072499
2.0061945836450952
2.0061946914997404
2.0061946872643275
2.0061946914966566
2.0061946912439907
2.0061946914966566
2.0061946872643275
2.0061946914997404
2.0061945836450952
2.0061946916072499
2.0061926754369521
2.0061946944756475
2.0061684182974298
2.0061947486054224
2.00597136384707
2.006195339727713
2.0050549073435859
2.0061976858101636
2.0028999800660752
2.0061926425838941
1.9998415637808975
1.9999151889582765
1.9999151889582765
1.9999151889582765
1.9999151889582765
1.9999151889582765
1.9999151889582765
1.9999151889582765
1.9999151889582765
1.9999151889582765
1.9999151889582765
1.9999151889582765
1.9999151889582765
1.9999151889582765
1.9999151889582765
1.9999151889582765
1.9999151889582765
1.9999151889582765
1.9999151889582765
1.9999151889582765
1.9999151889582765
1.9999151889582765
1.9999151889582765
1.9999151889582765
1.9999151889582765
1.9999151889582765
1.9999151889582765
1.9999151889582765
1.9999151889582765
1.9999151889582765
1.9999151889582765
1.9999151889582765
1.9999151889582765
1.0044039647508323
1.0023442955739603
1.0044134811049148
1.0032164210517232
1.0044118539541118
1.0039215628366995
1.0044099134967166
1.0042854118965914
1.0044093583512004
1.0043889555833145
1.0044092807085678
1.0044069829369136
1.0044092739018147
1.0044090858622392
1.0044092734746284
1.0044092503995627
1.0044092734746284
1.0044090858622392
1.0044092739018147
1.0044069829369136
1.0044092807085678
1.0043889555833145
1.0044093583512004
1.0042854118965914
1.0044099134967166
1.0039215628366995
1.0044118539541118
1.0032164210517232
1.0044134811049148
1.0023442955739603
1.0044039647508323
1.0000453978687025
1.0000818481137779
1.0000849258175601
1.0000818346418412
1.0000831322937664
1.0000818327248271
1.000082237911559
1.0000818343084776
1.0000819399637242
1.0000818349274834
1.0000818551129507
1.0000818350307563
1.0000818377224721
1.0000818350410869
1.0000818352978165
1.000081835041801
1.000081835077673
1.000081835041801
1.0000818352978165
1.0000818350410869
1.0000818377224721
1.0000818350307563
1.0000818551129507
1.0000818349274834
1.0000819399637242
1.0000818343084776
1.000082237911559
1.0000818327248271
1.0000831322937664
1.0000818346418412
1.0000849258175601
1.0000818481137779
1.0000848110417238
1.0027872675957539
1.001022486297491
1.002791676434976
1.0018201977118246
1.0027916912421535
1.0024534902700677
1.0027910270333864
1.0027183665720558
1.0027908464656161
1.0027805986838219
1.0027908238035095
1.002789813666632
1.0027908219959536
1.0027907486873153
1.0027908218911912
1.0027908138147781
1.0027908218911912
1.0027907486873153
1.0027908219959536
1.002789813666632
1.0027908238035095
1.0027805986838219
1.0027908464656161
1.0027183665720558
1.0027910270333864
1.0024534902700677
1.0027916912421535
1.0018201977118246
1.002791676434976
1.001022486297491
1.0027872675957539
1.0001584362191025
1.0002904004237376
1.0002939352485749
1.000290408709829
1.0002918166873547
1.0002904069572207
1.0002908915893218
1.0002904062729567
1.0002905281049441
1.0002904062163389
1.0002904267562052
1.0002904062180042
1.0002904085946966
1.0002904062186713
1.0002904064168237
1.0002904062187363
1.0002904062433284
1.0002904062187363
1.0002904064168237
1.0002904062186713
1.0002904085946966
1.0002904062180042
1.0002904267562052
1.0002904062163389
1.0002905281049441
1.0002904062729567
1.0002908915893218
1.0002904069572207
1.0002918166873547
1.000290408709829
1.0002939352485749
1.0002904004237376
1.0002959571135133
1.0023453354591729
1.0012397813964693
1.0023465770091318
1.001861617593
1.0023466885933221
1.0022139432380159
1.0023465841462789
1.0023233955033863
1.0023465571967012
1.0023438123355706
1.0023465540656371
1.0023463215188952
1.0023465538313876
1.0023465390769257
1.0023465538186138
1.0023465523769117
1.0023465538186138
1.0023465390769257
1.0023465538313876
1.0023463215188952
1.0023465540656371
1.0023438123355706
1.0023465571967012
1.0023233955033863
1.0023465841462789
1.0022139432380159
1.0023466885933221
1.001861617593
1.0023465770091318
1.0012397813964693
1.0023453354591729
1.0005527786369237
1.000980987834851
1.0010114819239684
1.0009809926644391
1.0009934715737654
1.0009809926611555
1.000984490855322
1.00098099239746
1.0009816559853131
1.0009809923516775
1.0009810801508126
1.0009809923478226
1.000981000775033
1.0009809923476221
1.0009809929574085
1.0009809923476178
1.0009809924156776
1.0009809923476178
1.0009809929574085
1.0009809923476221
1.000981000775033
1.0009809923478226
1.0009810801508126
1.0009809923516775
1.0009816559853131
1.00098099239746
1.000984490855322
1.0009809926611555
1.0009934715737654
1.0009809926644391
1.0010114819239684
1.000980987834851
1.001032231036755
1.002593322356053
1.0022468140985479
1.0025935433188369
1.0024754215812797
1.002593573288965
1.002568772962066
1.0025935648654316
1.0025902296584601
1.0025935625275797
1.0025932610677291
1.0025935622611144
1.0025935433588533
1.0025935622418751
1.0025935614173118
1.0025935622408757
1.0025935621940978
1.0025935622408757
1.0025935614173118
1.0025935622418751
1.0025935433588533
1.0025935622611144
1.0025932610677291
1.0025935625275797
1.0025902296584601
1.0025935648654316
1.002568772962066
1.002593573288965
1.0024754215812797
1.0025935433188369
1.0022468140985479
1.002593322356053
1.0019267346633276
1.0034360714017743
1.0035326209840798
1.0034360831586482
1.003476107160117
1.0034360838221745
1.0034472909701093
1.0034360830363316
1.0034381955957838
1.0034360828545235
1.0034363606004988
1.0034360828349389
1.0034361093623991
1.0034360828335631
1.0034360847463575
1.0034360828334912
1.0034360830464923
1.0034360828334912
1.0034360847463575
1.0034360828335631
1.0034361093623991
1.0034360828349389
1.0034363606004988
1.0034360828545235
1.0034381955957838
1.0034360830363316
1.0034472909701093
1.0034360838221745
1.003476107160117
1.0034360831586482
1.0035326209840798
1.0034360714017743
1.0035936025814203
1.006641260554854
1.0067060858155001
1.0066413097662033
1.0066803198657661
1.0066413147494904
1.0066549978668091
1.0066413124606022
1.0066442425429964
1.0066413118701316
1.0066417269149492
1.0066413118041642
1.0066413532914795
1.0066413117994655
1.0066413148787403
1.0066413117992197
1.0066413121485893
1.0066413117992197
1.0066413148787403
1.0066413117994655
1.0066413532914795
1.0066413118041642
1.0066417269149492
1.0066413118701316
1.0066442425429964
1.0066413124606022
1.0066549978668091
1.0066413147494904
1.0066803198657661
1.0066413097662033
1.0067060858155001
1.006641260554854
1.006692850924285
1.0120862814913214
1.0123125241262274
1.0120863395241082
1.0121846094651805
1.0120863400123548
1.0121150509013337
1.0120863346835407
1.0120919164027256
1.0120863334861625
1.0120870829165867
1.0120863333564083
1.0120864059373322
1.0120863333471999
1.0120863386278065
1.0120863333467156
1.012086333937918
1.0120863333467156
1.0120863386278065
1.0120863333471999
1.0120864059373322
1.0120863333564083
1.0120870829165867
1.0120863334861625
1.0120919164027256
1.0120863346835407
1.0121150509013337
1.0120863400123548
1.0121846094651805
1.0120863395241082
1.0123125241262274
1.0120862814913214
1.0124316508531859
1.0225348749440271
1.0228447142221184
1.0225349955071568
1.0226753194012814
1.0225349925847449
1.0225773756914933
1.0225349799950019
1.0225433935720258
1.0225349772175798
1.0225361205738888
1.0225349769169056
1.0225350883541788
1.0225349768955465
1.0225349850242818
1.0225349768944196
1.0225349778045743
1.0225349768944196
1.0225349850242818
1.0225349768955465
1.0225350883541788
1.0225349769169056
1.0225361205738888
1.0225349772175798
1.0225433935720258
1.0225349799950019
1.0225773756914933
1.0225349925847449
1.0226753194012814
1.0225349955071568
1.0228447142221184
1.0225348749440271
1.0229773699100257
1.041463475947628
1.0419025761750733
1.0414637067517032
1.0416631130472787
1.0414636899409131
1.0415245144407284
1.0414636622337941
1.0414758196419198
1.0414636563112551
1.0414653124372393
1.041463655675364
1.0414638168788526
1.0414636556303605
1.0414636673400259
1.041463655627987
1.0414636569309053
1.041463655627987
1.0414636673400259
1.0414636556303605
1.0414638168788526
1.041463655675364
1.0414653124372393
1.0414636563112551
1.0414758196419198
1.0414636622337941
1.0415245144407284
1.0414636899409131
1.0416631130472787
1.0414637067517032
1.0419025761750733
1.041463475947628
1.0420877279156189
1.0750409893382831
1.0756154850843873
1.0750414064953471
1.0753059442140602
1.0750413534234919
1.0751232376878546
1.0750412976806563
1.0750577501471039
1.0750412861857506
1.0750435209826916
1.0750412849685631
1.0750415006419685
1.0750412848832547
1.075041300352819
1.0750412848788018
1.0750412865738952
1.0750412848788018
1.075041300352819
1.0750412848832547
1.0750415006419685
1.0750412849685631
1.0750435209826916
1.0750412861857506
1.0750577501471039
1.0750412976806563
1.0751232376878546
1.0750413534234919
1.0753059442140602
1.0750414064953471
1.0756154850843873
1.0750409893382831
1.0758581800212434
1.1318453380955125
1.1325718426468876
1.1318460334247289
1.1321824434245567
1.1318459007065811
1.13195057811789
1.1318457987062045
1.1318666979925731
1.1318457786426184
1.1318485732385186
1.131845776571476
1.1318460403254047
1.1318457764292833
1.1318457948402889
1.131845776422004
1.1318457783789138
1.131845776422004
1.1318457948402889
1.1318457764292833
1.1318460403254047
1.131845776571476
1.1318485732385186
1.1318457786426184
1.1318666979925731
1.1318457987062045
1.13195057811789
1.1318459007065811
1.1321824434245567
1.1318460334247289
1.1325718426468876
1.1318453380955125
1.1329642401978293
1.2210723594222539
1.221949201451294
1.2210733966481753
1.2214813709713928
1.2210731240616901
1.2211996043879993
1.2210729577730572
1.2210977051101619
1.2210729269017813
1.2210761297291304
1.2210729238378359
1.2210732138306912
1.2210729236348203
1.2210729429243394
1.2210729236248066
1.2210729255699584
1.2210729236248066
1.2210729429243394
1.2210729236348203
1.2210732138306912
1.2210729238378359
1.2210761297291304
1.2210729269017813
1.2210977051101619
1.2210729577730572
1.2211996043879993
1.2210731240616901
1.2214813709713928
1.2210733966481753
1.221949201451294
1.2210723594222539
1.2227001388253087
1.3462168085043202
1.347215054671141
1.3462181620550528
1.3466885832381597
1.3462177032216687
1.3463615768998001
1.3462174669670708
1.3462445158722842
1.3462174261310127
1.3462207333460021
1.3462174223222241
1.3462177022111821
1.346217422084969
1.3462174393611144
1.3462174220740057
1.3462174236841931
1.3462174220740057
1.3462174393611144
1.346217422084969
1.3462177022111821
1.3462174223222241
1.3462207333460021
1.3462174261310127
1.3462445158722842
1.3462174669670708
1.3463615768998001
1.3462177032216687
1.3466885832381597
1.3462181620550528
1.347215054671141
1.3462168085043202
1.3486451353339457
1.4966258456961588
1.4977064527902439
1.4966273701396831
1.4971438890358788
1.4966267622284142
1.4967784299347702
1.4966264861702707
1.4966530416035446
1.4966264428561116
1.4966294246732947
1.4966264391738484
1.4966266693833639
1.4966264389642026
1.496626451881554
1.4966264389553501
1.496626440048906
1.4966264389553501
1.496626451881554
1.4966264389642026
1.4966266693833639
1.4966264391738484
1.4966294246732947
1.4966264428561116
1.4966530416035446
1.4966264861702707
1.4967784299347702
1.4966267622284142
1.4971438890358788
1.4966273701396831
1.4977064527902439
1.4966258456961588
1.5
1.6473250385566414
1.6484618431381004
1.6473264638577094
1.6478553935279805
1.6473258777433046
1.6474686362804334
1.6473256348908281
1.6473482686932563
1.6473256007405102
1.6473278962772175
1.6473255981186687