# vtk DataFile Version 3.0
Euler density step 218
ASCII
DATASET STRUCTURED_POINTS
DIMENSIONS 32 32 32
ORIGIN 0 0 0
SPACING 0.3125 0.3125 0.3125
POINT_DATA 32768
SCALARS density double 1
LOOKUP_TABLE default
1.0039937435353088
1.0019711126384629
1.0039965452679878
1.0034251226250317
1.0039958510003832
1.0039006674533701
1.0039956659963776
1.0039857996420491
1.0039956509999988
1.0039949691079981
1.0039956503487202
1.0039956171115589
1.0039956503311533
1.0039956491379103
1.0039956503308829
1.0039956502657998
1.0039956503308829
1.0039956491379103
1.0039956503311533
1.0039956171115589
1.0039956503487202
1.0039949691079981
1.0039956509999988
1.0039857996420491
1.0039956659963776
1.0039006674533701
1.0039958510003832
1.0034251226250317
1.0039965452679878
1.0019711126384629
1.0039937435353088
1.0000453978687025
1.0000882453600417
1.0000882719243298
1.0000882434969254
1.0000884892367119
1.0000882436274787
1.0000883167279491
1.0000882437312206
1.0000882542309466
1.0000882437419829
1.0000882446572672
1.0000882437424898
1.0000882437962002
1.0000882437425023
1.0000882437447647
1.0000882437425023
1.0000882437426459
1.0000882437425023
1.0000882437447647
1.0000882437425023
1.0000882437962002
1.0000882437424898
1.0000882446572672
1.0000882437419829
1.0000882542309466
1.0000882437312206
1.0000883167279491
1.0000882436274787
1.0000884892367119
1.0000882434969254
1.0000882719243298
1.0000882453600417
1.0000848110417238
1.0026319752349258
1.0016068594754721
1.0026327540103768
1.0023895255751796
1.0026326892013071
1.0025989896500556
1.0026326658883489
1.0026297169477738
1.0026326641766099
1.0026324893760949
1.0026326641135801
1.0026326567110531
1.0026326641123582
1.0026326638791967
1.0026326641123569
1.0026326641011147
1.0026326641123569
1.0026326638791967
1.0026326641123582
1.0026326567110531
1.0026326641135801
1.0026324893760949
1.0026326641766099
1.0026297169477738
1.0026326658883489
1.0025989896500556
1.0026326892013071
1.0023895255751796
1.0026327540103768
1.0016068594754721
1.0026319752349258
1.0001584362191025
1.0002939384169143
1.0002955581174042
1.0002939385602727
1.0002944679485075
1.0002939385281255
1.000294033725416
1.0002939385295824
1.0002939488924458
1.0002939385299698
1.000293939276615
1.0002939385299865
1.0002939385679965
1.0002939385299865
1.0002939385314225
1.0002939385299865
1.0002939385300695
1.0002939385299865
1.0002939385314225
1.0002939385299865
1.0002939385679965
1.0002939385299865
1.000293939276615
1.0002939385299698
1.0002939488924458
1.0002939385295824
1.000294033725416
1.0002939385281255
1.0002944679485075
1.0002939385602727
1.0002955581174042
1.0002939384169143
1.0002959571135133
1.0012745333841677
1.001019966092872
1.0012746274130915
1.0012255556978897
1.0012746276304569
1.0012690510026412
1.0012746265465811
1.0012742191781487
1.0012746264717594
1.0012746060306246
1.0012746264697276
1.0012746257304668
1.0012746264697299
1.001274626449782
1.001274626469733
1.0012746264689107
1.001274626469733
1.001274626449782
1.0012746264697299
1.0012746257304668
1.0012746264697276
1.0012746060306246
1.0012746264717594
1.0012742191781487
1.0012746265465811
1.0012690510026412
1.0012746276304569
1.0012255556978897
1.0012746274130915
1.001019966092872
1.0012745333841677
1.0005527786369237
1.0010137423425338
1.0010223899148267
1.0010137424214569
1.0010158108473577
1.0010137424151326
1.0010140453289922
1.0010137424133505
1.0010137714114029
1.0010137424132153
1.0010137443401821
1.0010137424132095
1.0010137425064549
1.0010137424132091
1.0010137424166221
1.0010137424132091
1.001013742413404
1.0010137424132091
1.0010137424166221
1.0010137424132091
1.0010137425064549
1.0010137424132095
1.0010137443401821
1.0010137424132153
1.0010137714114029
1.0010137424133505
1.0010140453289922
1.0010137424151326
1.0010158108473577
1.0010137424214569
1.0010223899148267
1.0010137423425338
1.001032231036755
1.0020132813831666
1.0019926618860537
1.00201328764423
1.0020111736513131
1.002013287891276
1.0020132698770228
1.0020132878669383
1.0020133044490001
1.0020132878653174
1.0020132897586727
1.0020132878653114
1.0020132879820558
1.0020132878653143
1.0020132878701975
1.0020132878653145
1.0020132878656152
1.0020132878653145
1.0020132878701975
1.0020132878653143
1.0020132879820558
1.0020132878653114
1.0020132897586727
1.0020132878653174
1.0020133044490001
1.0020132878669383
1.0020132698770228
1.002013287891276
1.0020111736513131
1.00201328764423
1.0019926618860537
1.0020132813831666
1.0019267346633276
1.0035328407072279
1.0035612563921741
1.0035328414308264
1.0035395968270715
1.003532841393783
1.0035338266327334
1.003532841375802
1.0035329354383526
1.0035328413743303
1.0035328476115599
1.0035328413742657
1.0035328416754574
1.0035328413742632
1.0035328413852638
1.0035328413742632
1.0035328413748874
1.0035328413742632
1.0035328413852638
1.0035328413742632
1.0035328416754574
1.0035328413742657
1.0035328476115599
1.0035328413743303
1.0035329354383526
1.003532841375802
1.0035338266327334
1.003532841393783
1.0035395968270715
1.0035328414308264
1.0035612563921741
1.0035328407072279
1.0035936025814203
1.0066002664974356
1.0066468680629035
1.0066002688049938
1.0066117422795871
1.0066002686882365
1.0066019767928296
1.0066002686318973
1.0066004335399041
1.0066002686273177
1.0066002796254272
1.0066002686271118
1.0066002691595997
1.0066002686271054
1.0066002686465656
1.0066002686271052
1.0066002686282101
1.0066002686271052
1.0066002686465656
1.0066002686271054
1.0066002691595997
1.0066002686271118
1.0066002796254272
1.0066002686273177
1.0066004335399041
1.0066002686318973
1.0066019767928296
1.0066002686882365
1.0066117422795871
1.0066002688049938
1.0066468680629035
1.0066002664974356
1.006692850924285
1.0122559301763085
1.0123410769298224
1.0122559358829479
1.0122764350704696
1.0122559354095246
1.0122589500121157
1.0122559352355154
1.0122562242250368
1.0122559352215679
1.0122559544027787
1.0122559352209333
1.0122559361460199
1.0122559352209135
1.0122559352546014
1.0122559352209126
1.0122559352228182
1.0122559352209126
1.0122559352546014
1.0122559352209135
1.0122559361460199
1.0122559352209333
1.0122559544027787
1.0122559352215679
1.0122562242250368
1.0122559352355154
1.0122589500121157
1.0122559354095246
1.0122764350704696
1.0122559358829479
1.0123410769298224
1.0122559301763085
1.0124316508531859
1.0226930802696406
1.0228341984398315
1.0226930949515032
1.0227272841263897
1.0226930933826841
1.0226981380144025
1.0226930928787179
1.0226935766661649
1.022693092838912
1.0226931248917788
1.0226930928371087
1.0226930943777515
1.0226930928370503
1.0226930928929003
1.022693092837049
1.0226930928401901
1.022693092837049
1.0226930928929003
1.0226930928370503
1.0226930943777515
1.0226930928371087
1.0226931248917788
1.022693092838912
1.0226935766661649
1.0226930928787179
1.0226981380144025
1.0226930933826841
1.0227272841263897
1.0226930949515032
1.0228341984398315
1.0226930802696406
1.0229773699100257
1.0416394231575825
1.0418662403527923
1.0416394585035946
1.0416945088064984
1.0416394536392175
1.041647570245662
1.0416394522695986
1.0416402276668506
1.0416394521636199
1.0416395032101804
1.0416394521588483
1.0416394545921579
1.0416394521586954
1.0416394522460446
1.0416394521586911
1.0416394521635499
1.0416394521586911
1.0416394522460446
1.0416394521586954
1.0416394545921579
1.0416394521588483
1.0416395032101804
1.0416394521636199
1.0416402276668506
1.0416394522695986
1.041647570245662
1.0416394536392175
1.0416945088064984
1.0416394585035946
1.0418662403527923
1.0416394231575825
1.0420877279156189
1.0751703861016073
1.0755217480558243
1.0751704651122151
1.0752555024350507
1.0751704511554372
1.075182907370217
1.075170447706987
1.0751716249173313
1.0751704474477064
1.0751705238559774
1.0751704474361732
1.0751704510178379
1.0751704474358035
1.0751704475619734
1.0751704474357944
1.075170447442672
1.0751704474357944
1.0751704475619734
1.0751704474358035
1.0751704510178379
1.0751704474361732
1.0751705238559774
1.0751704474477064
1.0751716249173313
1.075170447706987
1.075182907370217
1.0751704511554372
1.0752555024350507
1.0751704651122151
1.0755217480558243
1.0751703861016073
1.0758581800212434
1.1319204552284565
1.1324447835730305
1.1319206173241991
1.1320462601082615
1.1319205807157486
1.1319386986927569
1.1319205727921611
1.131922248385256
1.1319205722200454
1.1319206781363818
1.1319205721951733
1.1319205770121308
1.131920572194387
1.1319205723585029
1.1319205721943686
1.1319205722029977
1.1319205721943686
1.1319205723585029
1.131920572194387
1.1319205770121308
1.1319205721951733
1.1319206781363818
1.1319205722200454
1.131922248385256
1.1319205727921611
1.1319386986927569
1.1319205807157486
1.1320462601082615
1.1319206173241991
1.1324447835730305
1.1319204552284565
1.1329642401978293
1.2211202746343792
1.2218690129445162
1.2211205723833092
1.2212970851992324
1.2211204864684582
1.2211452706698018
1.2211204702004654
1.2211226806732056
1.2211204690881985
1.2211206028260659
1.221120469041604
1.221120474828995
1.2211204690401782
1.2211204692269138
1.2211204690401438
1.2211204690494097
1.2211204690401438
1.2211204692269138
1.2211204690401782
1.221120474828995
1.221120469041604
1.2211206028260659
1.2211204690881985
1.2211226806732056
1.2211204702004654
1.2211452706698018
1.2211204864684582
1.2212970851992324
1.2211205723833092
1.2218690129445162
1.2211202746343792
1.2227001388253087
1.3462897111835386
1.347301138729019
1.3462901881833438
1.3465236066311097
1.3462900129616862
1.3463214926459188
1.3462899840178113
1.346292641057135
1.3462899821825061
1.3462901327335455
1.3462899821102641
1.3462899881665675
1.3462899821081853
1.3462899822888543
1.3462899821081398
1.3462899821163943
1.3462899821081398
1.3462899822888543
1.3462899821081853
1.3462899881665675
1.3462899821102641
1.3462901327335455
1.3462899821825061
1.346292641057135
1.3462899840178113
1.3463214926459188
1.3462900129616862
1.3465236066311097
1.3462901881833438
1.347301138729019
1.3462897111835386
1.3486451353339457
1.4966800273598162
1.497949539287641
1.4966806763236711
1.4969644269291
1.4966803868111311
1.4967164924499352
1.4966803453138551
1.496683174528088
1.4966803429364044
1.4966804903219249
1.4966803428509614
1.4966803482691677
1.496680342848711
1.4966803429958344
1.4966803428486666
1.4966803428547726
1.4966803428486666
1.4966803429958344
1.496680342848711
1.4966803482691677
1.4966803428509614
1.4966804903219249
1.4966803429364044
1.496683174528088
1.4966803453138551
1.4967164924499352
1.4966803868111311
1.4969644269291
1.4966806763236711
1.497949539287641
1.4966800273598162
1.5
1.6471856720453841
1.6486210425453893
1.6471863865575276
1.6474917614486928
1.6471860342712448
1.6472221820423651
1.6471859901430119
1.6471885967490647
1.6471859878801463
1.6471861121660836
1.6471859878065418
1.6471859919764029
1.6471859878047814
1.6471859879079398
1.6471859878047486
1.6471859878086454
1.6471859878047486
1.6471859879079398
1.6471859878047814
1.6471859919764029
1.6471859878065418
1.6471861121660836
1.6471859878801463
1.6471885967490647
1.6471859901430119
1.6472221820423651
1.6471860342712448
1.6474917614486928
1.6471863865575276
1.6486210425453893
1.6471856720453841
1.6513548646660543
1.7728295138950136
1.7742506387102213
1.7728301365067523
1.7731142719183504
1.772829831341979
1.7728610541930447
1.7728297970641578
1.7728318798601721
1.7728297954688044
1.7728298872500625
1.7728297954212062
1.772829798266421
1.7728297954201564
1.7728297954851875
1.7728297954201386
1.7728297954224093
1.7728297954201386
1.7728297954851875
1.7728297954201564
1.772829798266421
1.7728297954212062
1.7728298872500625
1.7728297954688044
1.7728318798601721
1.7728297970641578
1.7728610541930447
1.772829831341979
1.7731142719183504
1.7728301365067523
1.7742506387102213
1.7728295138950136
1.7772998611746911
1.8629602579615552
1.8641862420816311
1.8629606990934038
1.8631905382202882
1.8629605029868481
1.8629841332827248
1.8629604825935522
1.8629619603411058
1.8629604817120398
1.8629605428844516
1.8629604816874186
1.8629604834715643
1.8629604816869103
1.8629604817253167
1.8629604816869012
1.8629604816881633
1.8629604816869012
1.8629604817253167
1.8629604816869103
1.8629604834715643
1.8629604816874186
1.8629605428844516
1.8629604817120398
1.8629619603411058
1.8629604825935522
1.8629841332827248
1.8629605029868481
1.8631905382202882
1.8629606990934038
1.8641862420816311
1.8629602579615552
1.8670357598021707
1.9209120408484561
1.9218471213842068
1.9209123029212927
1.9210776936935838
1.9209122030064958
1.9209283080283457
1.9209121931243647
1.9209131516762137
1.9209121927192239
1.9209122306222788
1.9209121927084405
1.9209121937670715
1.9209121927082269
1.9209121927300867
1.9209121927082233
1.9209121927089143
1.9209121927082233
1.9209121927300867
1.9209121927082269
1.9209121937670715
1.9209121927084405
1.9209122306222788
1.9209121927192239
1.9209131516762137
1.9209121931243647
1.9209283080283457
1.9209122030064958
1.9210776936935838
1.9209123029212927
1.9218471213842068
1.9209120408484561
1.9241418199787566
1.9556212604207217
1.9562661864388065
1.9556213936103826
1.955730121849043
1.9556213507991298
1.9556315069553261
1.9556213466906873
1.9556219299069209
1.9556213465282843
1.9556213688691746
1.9556213465241035
1.9556213471302761
1.9556213465240235
1.9556213465362089
1.9556213465240222
1.9556213465243983
1.9556213465240222
1.9556213465362089
1.9556213465240235
1.9556213471302761
1.9556213465241035
1.9556213688691746
1.9556213465282843
1.9556219299069209
1.9556213466906873
1.9556315069553261
1.9556213507991298
1.955730121849043
1.9556213936103826
1.9562661864388065
1.9556212604207217
1.9579122720843811
1.9755310312068164
1.9759423024291001
1.9755310903476315
1.9755979350800377
1.9755310741938306
1.9755371327948641
1.9755310726681181
1.9755314120755041
1.9755310726092501
1.9755310853398089
1.9755310726077719
1.9755310729468452
1.9755310726077422
1.9755310726144444
1.9755310726077417
1.9755310726079447
1.9755310726077417
1.9755310726144444
1.9755310726077422
1.9755310729468452
1.9755310726077719
1.9755310853398089
1.9755310726092501
1.9755314120755041
1.9755310726681181
1.9755371327948641
1.9755310741938306
1.9755979350800377
1.9755310903476315
1.9759423024291001
1.9755310312068164
1.9770226300899743
1.9866529766133749
1.9869012197018605
1.9866530001091014
1.9866922403632754
1.9866529945392273
1.9866564754706593
1.9866529940169086
1.9866531857787486
1.9866529939970747
1.9866530010923258
1.9866529939965847
1.9866529941833944
1.9866529939965762
1.9866529940002289
1.9866529939965758
1.9866529939966859
1.9866529939965758
1.9866529940002289
1.9866529939965762
1.9866529941833944
1.9866529939965847
1.9866530010923258
1.9866529939970747
1.9866531857787486
1.9866529940169086
1.9866564754706593
1.9866529945392273
1.9866922403632754
1.9866530001091014
1.9869012197018605
1.9866529766133749
1.9875683491468141
1.9928102018036795
1.9929462732873899
1.9928102107829173
1.9928317754230243
1.9928102090197171
1.9928121186148324
1.9928102088508013
1.9928103136834414
1.9928102088443842
1.9928102127076015
1.9928102088442281
1.9928102089455206
1.9928102088442241
1.9928102088461974
1.9928102088442241
1.9928102088442836
1.9928102088442241
1.9928102088461974
1.9928102088442241
1.9928102089455206
1.9928102088442281
1.9928102127076015
1.9928102088443842
1.9928103136834414
1.9928102088508013
1.9928121186148324
1.9928102090197171
1.9928317754230243
1.9928102107829173
1.9929462732873899
1.9928102018036795
1.993307149075715
1.9961012588989728
1.9961826825045035
1.9961012617824574
1.99611371245157
1.9961012612221056
1.9961023392234285
1.9961012611697821
1.9961013195036807
1.9961012611678317
1.9961012632966906
1.996101261167786
1.9961012612232174
1.9961012611677851
1.9961012611688589
1.9961012611677851
1.9961012611678168
1.9961012611677851
1.9961012611688589
1.9961012611677851
1.9961012612232174
1.996101261167786
1.9961012632966906
1.9961012611678317
1.9961013195036807
1.9961012611697821
1.9961023392234285
1.9961012612221056
1.99611371245157
1.9961012617824574
1.9961826825045035
1.9961012588989728
1.9964063974185799
1.9982988010246261
1.9982486172726337
1.9982988168295959
1.9982946507544901
1.9982988161796009
1.9982986853160334
1.9982988160624466
1.9982988178792498
1.9982988160570325
1.9982988163571502
1.9982988160568851
1.998298816069171
1.9982988160568829
1.9982988160571864
1.9982988160568829
1.9982988160568931
1.9982988160568829
1.9982988160571864
1.9982988160568829
1.998298816069171
1.9982988160568851
1.9982988163571502
1.9982988160570325
1.9982988178792498
1.9982988160624466
1.9982986853160334
1.9982988161796009
1.9982946507544901
1.9982988168295959
1.9982486172726337
1.9982988010246261
1.9980732653366724
1.9988711336658116
1.998897775323466
1.9988711337726077
1.9988751848502013
1.9988711337591833
1.9988714817876767
1.9988711337604803
1.9988711524417007
1.9988711337606284
1.9988711344372188
1.9988711337606333
1.9988711337781289
1.9988711337606335
1.9988711337609708
1.9988711337606335
1.998871133760644
1.9988711337606335
1.9988711337609708
1.9988711337606335
1.9988711337781289
1.9988711337606333
1.9988711344372188
1.9988711337606284
1.9988711524417007
1.9988711337604803
1.9988714817876767
1.9988711337591833
1.9988751848502013
1.9988711337726077
1.998897775323466
1.9988711336658116
1.9989677689632452
2.0014664177222961
2.0008528541598629
2.0014666347696384
2.0013770953766703
2.0014666033520347
2.0014594352971509
2.001466599824417
2.0014662450520277
2.0014665996764665
2.0014665878653353
2.001466599672542
2.0014665993917999
2.001466599672467
2.0014665996674901
2.0014665996724652
2.0014665996723293
2.0014665996724652
2.0014665996674901
2.001466599672467
2.0014665993917999
2.001466599672542
2.0014665878653353
2.0014665996764665
2.0014662450520277
2.001466599824417
2.0014594352971509
2.0014666033520347
2.0013770953766703
2.0014666347696384
2.0008528541598629
2.0014664177222961
1.9994472213630763
1.9996768723047287
1.9996878787486141
1.9996768712618389
1.999678948645345
1.9996768718721909
1.9996770787875178
1.9996768719554987
1.9996768842893333
1.9996768719599118
1.9996768724425011
1.9996768719600511
1.9996768719732883
1.9996768719600548
1.9996768719603222
1.9996768719600551
1.9996768719600624
1.9996768719600551
1.9996768719603222
1.9996768719600548
1.9996768719732883
1.9996768719600511
1.9996768724425011
1.9996768719599118
1.9996768842893333
1.9996768719554987
1.9996770787875178
1.9996768718721909
1.999678948645345
1.9996768712618389
1.9996878787486141
1.9996768723047287
1.999704042886487
2.0047205177518714
2.0029528413303672
2.0047214579570403
2.0043895730060579
2.0047209355834439
2.004687711053744
2.0047208854094558
2.0047188929422406
2.0047208833454562
2.0047208049160568
2.0047208832905343
2.0047208811269419
2.0047208832894579
2.0047208832455672
2.0047208832894423
2.0047208832880856
2.0047208832894423
2.0047208832455672
2.0047208832894579
2.0047208811269419
2.0047208832905343
2.0047208049160568
2.0047208833454562
2.0047188929422406
2.0047208854094558
2.004687711053744
2.0047209355834439
2.0043895730060579
2.0047214579570403
2.0029528413303672
2.0047205177518714
1.9998415637808975
1.9999151889582765
1.9999151889582765
1.9999151889582765
1.9999151889582765
1.9999151889582765
1.9999151889582765
1.9999151889582765
1.9999151889582765
1.9999151889582765
1.9999151889582765
1.9999151889582765
1.9999151889582765
1.9999151889582765
1.9999151889582765
1.9999151889582765
1.9999151889582765
1.9999151889582765
1.9999151889582765
1.9999151889582765
1.9999151889582765
1.9999151889582765
1.9999151889582765
1.9999151889582765
1.9999151889582765
1.9999151889582765
1.9999151889582765
1.9999151889582765
1.9999151889582765
1.9999151889582765
1.9999151889582765
1.9999151889582765
1.9999151889582765
1.0046527259203644
1.002870948208735
1.0046568679236743
1.0040138342058844
1.0046552667968407
1.0045196317761231
1.0046547826890315
1.0046375128625733
1.0046547300515276
1.0046532968294752
1.0046547267714632
1.0046546440567556
1.0046547266298789
1.0046547231395455
1.0046547266252943
1.0046547264023031
1.0046547266252943
1.0046547231395455
1.0046547266298789
1.0046546440567556
1.0046547267714632
1.0046532968294752
1.0046547300515276
1.0046375128625733
1.0046547826890315
1.0045196317761231
1.0046552667968407
1.0040138342058844
1.0046568679236743
1.002870948208735
1.0046527259203644
1.0000453978687025
1.0000899862777757
1.0000884366177647
1.000089984316658
1.0000897269777151
1.0000899841384499
1.0000899734279363
1.0000899843052817
1.0000899872035456
1.0000899843345088
1.000089984861307
1.0000899843368303
1.0000899843809909
1.0000899843369462
1.0000899843393016
1.0000899843369502
1.0000899843371265
1.0000899843369502
1.0000899843393016
1.0000899843369462
1.0000899843809909
1.0000899843368303
1.000089984861307
1.0000899843345088
1.0000899872035456
1.0000899843052817
1.0000899734279363
1.0000899841384499
1.0000897269777151
1.000089984316658
1.0000884366177647
1.0000899862777757
1.0000848110417238
1.0024125043743397
1.0012969167534984
1.002413872109132
1.0020804377639256
1.002413666636101
1.0023565176432718
1.002413584170899
1.0024075368710195
1.0024135756340997
1.0024131488211956
1.002413575133742
1.0024135537961465
1.0024135751133811
1.0024135743222842
1.0024135751127587
1.0024135750678231
1.0024135751127587
1.0024135743222842
1.0024135751133811
1.0024135537961465
1.002413575133742
1.0024131488211956
1.0024135756340997
1.0024075368710195
1.002413584170899
1.0023565176432718
1.002413666636101
1.0020804377639256
1.002413872109132
1.0012969167534984
1.0024125043743397
1.0001584362191025
1.0002985587330344
1.0002981251471657
1.0002985605031416
1.0002986564237337
1.0002985602222565
1.0002986101378468
1.000298560171283
1.0002985684062955
1.0002985601684617
1.0002985609297137
1.0002985601683996
1.0002985602145344
1.0002985601684005
1.0002985601703884
1.0002985601684009
1.000298560168529
1.0002985601684009
1.0002985601703884
1.0002985601684005
1.0002985602145344
1.0002985601683996
1.0002985609297137
1.0002985601684617
1.0002985684062955
1.000298560171283
1.0002986101378468
1.0002985602222565
1.0002986564237337
1.0002985605031416
1.0002981251471657
1.0002985587330344
1.0002959571135133
1.0014049473627531
1.0010497405131822
1.0014051509915909
1.0013216504752114
1.0014051437319433
1.0013936727631563
1.0014051376990636
1.0014041357531609
1.001405137067799
1.0014050772894969
1.0014051370316104
1.0014051344598884
1.0014051370301982
1.0014051369470529
1.0014051370301578
1.0014051370259955
1.0014051370301578
1.0014051369470529
1.0014051370301982
1.0014051344598884
1.0014051370316104
1.0014050772894969
1.001405137067799
1.0014041357531609
1.0014051376990636
1.0013936727631563
1.0014051437319433
1.0013216504752114
1.0014051509915909
1.0010497405131822
1.0014049473627531
1.0005527786369237
1.0010126504540404
1.0010220751134686
1.0010126508406345
1.0010152338961777
1.0010126508117192
1.0010130830161001
1.0010126508019499
1.0010126972233386
1.0010126508011579
1.0010126541984801
1.0010126508011201
1.001012650979302
1.0010126508011192
1.0010126508080934
1.0010126508011192
1.0010126508015398
1.0010126508011192
1.0010126508080934
1.0010126508011192
1.001012650979302
1.0010126508011201
1.0010126541984801
1.0010126508011579
1.0010126972233386
1.0010126508019499
1.0010130830161001
1.0010126508117192
1.0010152338961777
1.0010126508406345
1.0010220751134686
1.0010126504540404
1.001032231036755
1.0020673970656735
1.0020228843741537
1.0020674146519397
1.0020603066458087
1.002067414992406
1.0020668528813421
1.0020674147248398
1.0020673988607527
1.0020674146947239
1.002067415673042
1.0020674146930098
1.0020674148194304
1.0020674146929454
1.0020674146999116
1.0020674146929429
1.002067414693449
1.0020674146929429
1.0020674146999116
1.0020674146929454
1.0020674148194304
1.0020674146930098
1.002067415673042
1.0020674146947239
1.0020673988607527
1.0020674147248398
1.0020668528813421
1.002067414992406
1.0020603066458087
1.0020674146519397
1.0020228843741537
1.0020673970656735
1.0019267346633276
1.0035256506369508
1.0035579387013474
1.0035256520102771
1.0035343756817698
1.0035256518760147
1.0035270957303035
1.0035256518225824
1.0035258058236081
1.0035256518175417
1.003525663037701
1.0035256518172708
1.0035256524039284
1.0035256518172606
1.0035256518401741
1.0035256518172604
1.0035256518186371
1.0035256518172604
1.0035256518401741
1.0035256518172606
1.0035256524039284
1.0035256518172708
1.003525663037701
1.0035256518175417
1.0035258058236081
1.0035256518225824
1.0035270957303035
1.0035256518760147
1.0035343756817698
1.0035256520102771
1.0035579387013474
1.0035256506369508
1.0035936025814203
1.0066003750765178
1.0066490019283096
1.0066003796706771
1.0066144086377575
1.0066003792911598
1.0066027940939237
1.0066003791260163
1.006600642381996
1.0066003791102056
1.006600398525765
1.0066003791093534
1.0066003801314254
1.0066003791093219
1.0066003791493867
1.0066003791093208
1.0066003791117306
1.0066003791093208
1.0066003791493867
1.0066003791093219
1.0066003801314254
1.0066003791093534
1.006600398525765
1.0066003791102056
1.006600642381996
1.0066003791260163
1.0066027940939237
1.0066003792911598
1.0066144086377575
1.0066003796706771
1.0066490019283096
1.0066003750765178
1.006692850924285
1.0122450504696947
1.0123364163479602
1.012245059948216
1.0122703276223188
1.0122450585651845
1.012249311945209
1.0122450581074069
1.0122455163191026
1.0122450580651257
1.0122450916169108
1.0122450580628732
1.0122450598200887
1.012245058062788
1.0122450581313804
1.012245058062786
1.0122450580668985
1.012245058062786
1.0122450581313804
1.012245058062788
1.0122450598200887
1.0122450580628732
1.0122450916169108
1.0122450580651257
1.0122455163191026
1.0122450581074069
1.012249311945209
1.0122450585651845
1.0122703276223188
1.012245059948216
1.0123364163479602
1.0122450504696947
1.0124316508531859
1.0226857558432572
1.0228307265402095
1.0226857785037309
1.0227264191642373
1.0226857744359261
1.0226926757661472
1.0226857732097714
1.0226865194085935
1.0226857730983727
1.0226858277425099
1.0226857730924852
1.0226857759478274
1.0226857730922636
1.0226857732032852
1.0226857730922581
1.0226857730988816
1.0226857730922581
1.0226857732032852
1.0226857730922636
1.0226857759478274
1.0226857730924852
1.0226858277425099
1.0226857730983727
1.0226865194085935
1.0226857732097714
1.0226926757661472
1.0226857744359261
1.0227264191642373
1.0226857785037309
1.0228307265402095
1.0226857558432572
1.0229773699100257
1.0416389600541445
1.0418610777617443
1.0416390100885613
1.0417017199800802
1.0416389989583099
1.0416496853216153
1.0416389959171393
1.0416401495087497
1.0416389956471079
1.0416390796642905
1.0416389956330232
1.0416389999876177
1.0416389956324972
1.0416389958001233
1.0416389956324823
1.0416389956423684
1.0416389956324823
1.0416389958001233
1.0416389956324972
1.0416389999876177
1.0416389956330232
1.0416390796642905
1.0416389956471079
1.0416401495087497
1.0416389959171393
1.0416496853216153
1.0416389989583099
1.0417017199800802
1.0416390100885613
1.0418610777617443
1.0416389600541445
1.0420877279156189
1.0751814123811536
1.0755061200180207
1.0751815135806742
1.0752734734715044
1.0751814857377049
1.0751971128164521
1.0751814788589056
1.075183149449281
1.0751814782669926
1.075181598160823
1.0751814782367439
1.075181484339238
1.0751814782356406
1.0751814784657683
1.0751814782356106
1.0751814782488833
1.0751814782356106
1.0751814784657683
1.0751814782356406
1.075181484339238
1.0751814782367439
1.075181598160823
1.0751814782669926
1.075183149449281
1.0751814788589056
1.0751971128164521
1.0751814857377049
1.0752734734715044
1.0751815135806742
1.0755061200180207
1.0751814123811536
1.0758581800212434
1.1319406282045223
1.1323937608059422
1.1319408123523333
1.1320685714852605
1.1319407498317036
1.1319621623907772
1.1319407359219904
1.1319429726737416
1.1319407347758128
1.1319408906042818
1.1319407347191015
1.1319407423831791
1.131940734717092
1.131940734995414
1.131940734717036
1.1319407347324584
1.131940734717036
1.131940734995414
1.131940734717092
1.1319407423831791
1.1319407347191015
1.1319408906042818
1.1319407347758128
1.1319429726737416
1.1319407359219904
1.1319621623907772
1.1319407498317036
1.1320685714852605
1.1319408123523333
1.1323937608059422
1.1319406282045223
1.1329642401978293
1.2211504289046615
1.221749522945508
1.2211507226122125
1.2213178325438412
1.2211505998458347
1.2211778170148149
1.221150575329361
1.2211532994819703
1.2211505734261427
1.2211507535925128
1.2211505733366348
1.2211505816968606
1.2211505733336223
1.2211505736188213
1.2211505733335444
1.2211505733483465
1.2211505733335444
1.2211505736188213
1.2211505733336223
1.2211505816968606
1.2211505733366348
1.2211507535925128
1.2211505734261427
1.2211532994819703
1.221150575329361
1.2211778170148149
1.2211505998458347
1.2213178325438412
1.2211507226122125
1.221749522945508
1.2211504289046615
1.2227001388253087
1.3463707415335564
1.3471172791834383
1.3463711447668023
1.3465749496528994
1.3463709423500196
1.3464024456315942
1.3463709063798401
1.3463738463101553
1.346370903818179
1.3463710833506035
1.3463709037069269
1.3463709113561348
1.3463709037034715
1.3463709039422387
1.3463709037033904
1.3463709037147058
1.3463709037033904
1.3463709039422387
1.3463709037034715
1.3463709113561348
1.3463709037069269
1.3463710833506035
1.346370903818179
1.3463738463101553
1.3463709063798401
1.3464024456315942
1.3463709423500196
1.3465749496528994
1.3463711447668023
1.3471172791834383
1.3463707415335564
1.3486451353339457
1.4969453664153261
1.4978110158389586
1.4969458270086249
1.4971707686270104
1.4969455695934175
1.496977600467317
1.496945529314927
1.4969482476879734
1.4969455267458989
1.4969456769211269
1.4969455266451055
1.4969455324208605
1.4969455266422689
1.4969455268048715
1.4969455266422083
1.4969455266491631
1.4969455266422083
1.4969455268048715
1.4969455266422689
1.4969455324208605
1.4969455266451055
1.4969456769211269
1.4969455267458989
1.4969482476879734
1.496945529314927
1.496977600467317
1.4969455695934175
1.4971707686270104
1.4969458270086249
1.4978110158389586
1.4969453664153261
1.5
1.6478258263086181
1.6487262280873942
1.6478262442207223
1.6480420037600463
1.6478260113988612
1.6478538127294386
1.6478259790371927
1.6478281075290611
1.6478259771865118