# vtk DataFile Version 3.0
Euler density step 306
ASCII
DATASET STRUCTURED_POINTS
DIMENSIONS 32 32 32
ORIGIN 0 0 0
SPACING 0.3125 0.3125 0.3125
POINT_DATA 32768
SCALARS density double 1
LOOKUP_TABLE default
1.0059990681277104
1.0020055740913476
1.0060101271620925
1.0040112859342198
1.006009604531755
1.005314453236777
1.0060076618042493
1.005850925584892
1.0060071247305886
1.0059835293453827
1.0060070570909316
1.0060045675603739
1.0060070519157398
1.0060068592002889
1.0060070516434592
1.0060070291757262
1.0060070516434592
1.0060068592002889
1.0060070519157398
1.0060045675603739
1.0060070570909316
1.0059835293453827
1.0060071247305886
1.005850925584892
1.0060076618042493
1.005314453236777
1.006009604531755
1.0040112859342198
1.0060101271620925
1.0020055740913476
1.0059990681277104
1.0000453978687025
1.0000782790638512
1.0000847509250259
1.0000782603161187
1.0000814554290924
1.0000782579790262
1.000079405050615
1.0000782601659048
1.0000785396974825
1.0000782609608123
1.0000783069428012
1.0000782610776879
1.0000782663654086
1.000078261087421
1.0000782615312949
1.0000782610879329
1.000078261143734
1.0000782610879329
1.0000782615312949
1.000078261087421
1.0000782663654086
1.0000782610776879
1.0000783069428012
1.0000782609608123
1.0000785396974825
1.0000782601659048
1.000079405050615
1.0000782579790262
1.0000814554290924
1.0000782603161187
1.0000847509250259
1.0000782790638512
1.0000848110417238
1.0052724772296022
1.0021552249210928
1.0052776961188756
1.0038261931456534
1.0052779683247344
1.004837394590955
1.0052773286912371
1.0051914169752154
1.005277166761714
1.0052658918998447
1.0052771488928396
1.0052761012981206
1.0052771476945004
1.0052770756934062
1.0052771476401072
1.0052771401277079
1.0052771476401072
1.0052770756934062
1.0052771476945004
1.0052761012981206
1.0052771488928396
1.0052658918998447
1.005277166761714
1.0051914169752154
1.0052773286912371
1.004837394590955
1.0052779683247344
1.0038261931456534
1.0052776961188756
1.0021552249210928
1.0052724772296022
1.0001584362191025
1.0002757564440095
1.0002875233137101
1.0002757585265385
1.0002807234230777
1.0002757571891188
1.0002772478575712
1.0002757571607406
1.0002760623321341
1.0002757572384589
1.0002758004070462
1.0002757572514613
1.0002757616265161
1.0002757572524061
1.0002757575830319
1.0002757572524372
1.0002757572906205
1.0002757572524372
1.0002757575830319
1.0002757572524061
1.0002757616265161
1.0002757572514613
1.0002758004070462
1.0002757572384589
1.0002760623321341
1.0002757571607406
1.0002772478575712
1.0002757571891188
1.0002807234230777
1.0002757585265385
1.0002875233137101
1.0002757564440095
1.0002959571135133
1.0034483639706893
1.0018248205978797
1.00344981203989
1.0028169041802866
1.0034499842514204
1.0032925392306324
1.0034498979059685
1.0034243460417744
1.003449877023715
1.0034470312586086
1.0034498749522096
1.0034496470145884
1.0034498748302561
1.0034498611790175
1.0034498748257525
1.003449873574312
1.0034498748257525
1.0034498611790175
1.0034498748302561
1.0034496470145884
1.0034498749522096
1.0034470312586086
1.003449877023715
1.0034243460417744
1.0034498979059685
1.0032925392306324
1.0034499842514204
1.0028169041802866
1.00344981203989
1.0018248205978797
1.0034483639706893
1.0005527786369237
1.0009441954355762
1.0009930948972923
1.0009441991271679
1.0009629395375488
1.0009441992348271
1.0009491015977197
1.0009441990865136
1.0009450785532801
1.000944199061458
1.0009443108921041
1.000944199059226
1.000944209523942
1.000944199059064
1.0009441998062396
1.0009441990590535
1.0009441991421832
1.0009441990590535
1.0009441998062396
1.000944199059064
1.000944209523942
1.000944199059226
1.0009443108921041
1.000944199061458
1.0009450785532801
1.0009441990865136
1.0009491015977197
1.0009441992348271
1.0009629395375488
1.0009441991271679
1.0009930948972923
1.0009441954355762
1.001032231036755
1.002818664745958
1.0023870924134251
1.0028189055846939
1.0026843856535093
1.0028189430459558
1.0027929929626469
1.0028189379659318
1.0028157410176228
1.0028189365245179
1.0028186781155624
1.0028189363902134
1.0028189229260986
1.002818936383518
1.002818936010897
1.0028189363833631
1.0028189363917481
1.0028189363833631
1.002818936010897
1.002818936383518
1.0028189229260986
1.0028189363902134
1.0028186781155624
1.0028189365245179
1.0028157410176228
1.0028189379659318
1.0027929929626469
1.0028189430459558
1.0026843856535093
1.0028189055846939
1.0023870924134251
1.002818664745958
1.0019267346633276
1.0033327487700585
1.003480743599743
1.0033327629638331
1.0033899990077833
1.0033327644970194
1.0033477828884418
1.0033327637671698
1.0033354610449567
1.0033327635908096
1.0033331069656752
1.0033327635727691
1.0033327957534892
1.0033327635716023
1.0033327658732742
1.0033327635715468
1.0033327638280574
1.0033327635715468
1.0033327658732742
1.0033327635716023
1.0033327957534892
1.0033327635727691
1.0033331069656752
1.0033327635908096
1.0033354610449567
1.0033327637671698
1.0033477828884418
1.0033327644970194
1.0033899990077833
1.0033327629638331
1.003480743599743
1.0033327487700585
1.0035936025814203
1.0065130564646962
1.0066499430843954
1.0065131124035824
1.0065790271105248
1.0065131198062145
1.0065332207669697
1.0065131178532332
1.006517080393696
1.0065131173331154
1.006513651706352
1.0065131172796793
1.0065131692176854
1.0065131172763266
1.0065131210796687
1.0065131172761776
1.0065131177065887
1.0065131172761776
1.0065131210796687
1.0065131172763266
1.0065131692176854
1.0065131172796793
1.006513651706352
1.0065131173331154
1.006517080393696
1.0065131178532332
1.0065332207669697
1.0065131198062145
1.0065790271105248
1.0065131124035824
1.0066499430843954
1.0065130564646962
1.006692850924285
1.011808422466312
1.0121781360038806
1.0118084995707455
1.0119563554645736
1.0118085052451598
1.011848501123727
1.0118084996772687
1.0118158511352
1.0118084983967963
1.0118094498748604
1.0118084982653148
1.0118085884663111
1.0118084982566775
1.011808504758495
1.0118084982562601
1.0118084989844871
1.0118084982562601
1.011808504758495
1.0118084982566775
1.0118085884663111
1.0118084982653148
1.0118094498748604
1.0118084983967963
1.0118158511352
1.0118084996772687
1.011848501123727
1.0118085052451598
1.0119563554645736
1.0118084995707455
1.0121781360038806
1.011808422466312
1.0124316508531859
1.0221071351007112
1.0226452282234801
1.0221073018114262
1.0223282901682391
1.0221073097334488
1.0221683692975154
1.0221072957496222
1.0221186768119848
1.0221072926198924
1.0221087781883977
1.0221072922988113
1.0221074337995815
1.0221072922775958
1.0221073024994169
1.0221072922765624
1.0221072934219237
1.0221072922765624
1.0221073024994169
1.0221072922775958
1.0221074337995815
1.0221072922988113
1.0221087781883977
1.0221072926198924
1.0221186768119848
1.0221072957496222
1.0221683692975154
1.0221073097334488
1.0223282901682391
1.0221073018114262
1.0226452282234801
1.0221071351007112
1.0229773699100257
1.0408236452630915
1.0416168086308999
1.0408239835573712
1.0411504189670127
1.0408239869475833
1.0409146097929922
1.0408239539212512
1.0408408973321925
1.0408239468096583
1.0408261596766679
1.0408239460857627
1.0408241565124505
1.040823946037869
1.040823961186603
1.0408239460355171
1.0408239477249428
1.0408239460355171
1.040823961186603
1.040823946037869
1.0408241565124505
1.0408239460857627
1.0408261596766679
1.0408239468096583
1.0408408973321925
1.0408239539212512
1.0409146097929922
1.0408239869475833
1.0411504189670127
1.0408239835573712
1.0416168086308999
1.0408236452630915
1.0420877279156189
1.0741445223794421
1.0752479450914265
1.0741451771640691
1.0746024836923591
1.0741451544956242
1.0742727994983508
1.0741450824858698
1.0741689494833233
1.0741450676511552
1.0741481703708025
1.0741450661630534
1.0741453588327381
1.0741450660650971
1.0741450869119402
1.0741450660602816
1.0741450683568088
1.0741450660602816
1.0741450869119402
1.0741450660650971
1.0741453588327381
1.0741450661630534
1.0741481703708025
1.0741450676511552
1.0741689494833233
1.0741450824858698
1.0742727994983508
1.0741451544956242
1.0746024836923591
1.0741451771640691
1.0752479450914265
1.0741445223794421
1.0758581800212434
1.1306669246915766
1.132160707008999
1.1306681239538379
1.1312869508862682
1.1306680177337785
1.1308402779962436
1.1306678725114192
1.1306997769139497
1.1306678442213034
1.1306719289328744
1.1306678414557556
1.1306682193202435
1.1306678412764686
1.1306678675889159
1.1306678412677387
1.130667844095703
1.1306678412677387
1.1306678675889159
1.1306678412764686
1.1306682193202435
1.1306678414557556
1.1306719289328744
1.1306678442213034
1.1306997769139497
1.1306678725114192
1.1308402779962436
1.1306680177337785
1.1312869508862682
1.1306681239538379
1.132160707008999
1.1306669246915766
1.1329642401978293
1.2196268697998691
1.221582701191781
1.2196289088536734
1.2204360692433374
1.219628600475996
1.2198509531007522
1.2196283327482511
1.2196686767754858
1.2196282840767836
1.2196333043253895
1.2196282795059343
1.2196287282656442
1.2196282792180182
1.2196283092751363
1.2196282792043116
1.2196282823017603
1.2196282792043116
1.2196283092751363
1.2196282792180182
1.2196287282656442
1.2196282795059343
1.2196333043253895
1.2196282840767836
1.2196686767754858
1.2196283327482511
1.2198509531007522
1.219628600475996
1.2204360692433374
1.2196289088536734
1.221582701191781
1.2196268697998691
1.2227001388253087
1.3445144692659246
1.3469625129890892
1.3445175888675187
1.3455249117321715
1.3445168929410642
1.3447897962500628
1.3445164501566902
1.3445644135937542
1.3445163758642369
1.3445220909023574
1.3445163692631565
1.3445168542842767
1.3445163688659945
1.3445163994999205
1.3445163688478781
1.3445163718112678
1.3445163688478781
1.3445163994999205
1.3445163688659945
1.3445168542842767
1.3445163692631565
1.3445220909023574
1.3445163758642369
1.3445644135937542
1.3445164501566902
1.3447897962500628
1.3445168929410642
1.3455249117321715
1.3445175888675187
1.3469625129890892
1.3445144692659246
1.3486451353339457
1.4945501593072779
1.4974387197284469
1.4945543747289747
1.4957435460898845
1.494553117698536
1.4948675219555176
1.4945524823200487
1.4946052605019917
1.4945523853357778
1.4945583054231606
1.4945523773642202
1.4945528457732271
1.4945523769178017
1.4945524043096046
1.4945523768988358
1.494552379342343
1.4945523768988358
1.4945524043096046
1.4945523769178017
1.4945528457732271
1.4945523773642202
1.4945583054231606
1.4945523853357778
1.4946052605019917
1.4945524823200487
1.4948675219555176
1.494553117698536
1.4957435460898845
1.4945543747289747
1.4974387197284469
1.4945501593072779
1.5
1.6446513315156404
1.6478488216390237
1.6446562102704403
1.645963746359796
1.644654484451032
1.6449861562604275
1.6446537470127576
1.6447060408680463
1.6446536459090246
1.6446590926370175
1.6446536383591035
1.6446540359875426
1.64465363797209
1.6446536593415446
1.6446536379569892
1.6446536397058624
1.6446536379569892
1.6446536593415446
1.64465363797209
1.6446540359875426
1.6446536383591035
1.6446590926370175
1.6446536459090246
1.6447060408680463
1.6446537470127576
1.6449861562604275
1.644654484451032
1.645963746359796
1.6446562102704403
1.6478488216390237
1.6446513315156404
1.6513548646660543
1.7699467678274863
1.7732500426878572
1.7699514579087194
1.7712614847045856
1.7699497240943876
1.7702622790075864
1.7699490631765353
1.7699948770398497
1.7699489814748499
1.769953399591955
1.7699489759182745
1.7699492741174276
1.7699489756563496
1.7699489904625765
1.769948975646904
1.7699489767666199
1.769948975646904
1.7699489904625765
1.7699489756563496
1.7699492741174276
1.7699489759182745
1.769953399591955
1.7699489814748499
1.7699948770398497
1.7699490631765353
1.7702622790075864
1.7699497240943876
1.7712614847045856
1.7699514579087194
1.7732500426878572
1.7699467678274863
1.7772998611746911
1.8599143923612815
1.8630521071852715
1.8599181614209863
1.8610953309843983
1.8599168515780269
1.8601783303559341
1.8599163870202196
1.8599520424130653
1.8599163344235601
1.8599195402888178
1.8599163311179379
1.8599165333085281
1.859916330972657
1.8599163403682271
1.8599163309677491
1.8599163316336589
1.8599163309677491
1.8599163403682271
1.859916330972657
1.8599165333085281
1.8599163311179379
1.8599195402888178
1.8599163344235601
1.8599520424130653
1.8599163870202196
1.8601783303559341
1.8599168515780269
1.8610953309843983
1.8599181614209863
1.8630521071852715
1.8599143923612815
1.8670357598021707
1.9179870250293845
1.9206872565937434
1.9179895976984793
1.9189375304479519
1.9179888140283035
1.9181851898478386
1.9179885474870255
1.9180136705910731
1.9179885193499342
1.9179906508042901
1.9179885176887497
1.9179886450753314
1.9179885176196785
1.9179885232454164
1.9179885176174647
1.9179885179972378
1.9179885176174647
1.9179885232454164
1.9179885176196785
1.9179886450753314
1.9179885176887497
1.9179906508042901
1.9179885193499342
1.9180136705910731
1.9179885474870255
1.9181851898478386
1.9179888140283035
1.9189375304479519
1.9179895976984793
1.9206872565937434
1.9179870250293845
1.9241418199787566
1.9530807454752748
1.9551870182864284
1.9530822589312595
1.9537749280965679
1.9530818699497887
1.9532168400313172
1.9530817400524156
1.9530981268834424
1.9530817270532399
1.9530830558506673
1.9530817263214846
1.9530818026110819
1.9530817262923277
1.9530817295402119
1.9530817262914311
1.9530817265033413
1.9530817262914311
1.9530817295402119
1.9530817262923277
1.9530818026110819
1.9530817263214846
1.9530830558506673
1.9530817270532399
1.9530981268834424
1.9530817400524156
1.9532168400313172
1.9530818699497887
1.9537749280965679
1.9530822589312595
1.9551870182864284
1.9530807454752748
1.9579122720843811
1.973586885107927
1.9750745417946063
1.9735876644083619
1.974052069966105
1.9735874987993671
1.9736737848847712
1.9735874432654557
1.9735975136223209
1.9735874379162497
1.9735882280123513
1.9735874376254467
1.9735874817214549
1.9735874376142226
1.9735874394452473
1.9735874376138884
1.9735874377307014
1.9735874376138884
1.9735874394452473
1.9735874376142226
1.9735874817214549
1.9735874376254467
1.9735882280123513
1.9735874379162497
1.9735975136223209
1.9735874432654557
1.9736737848847712
1.9735874987993671
1.974052069966105
1.9735876644083619
1.9750745417946063
1.973586885107927
1.9770226300899743
1.9852202766611886
1.9862182123763734
1.9852206356424269
1.9855163324811818
1.9852205723266494
1.9852732473909671
1.9852205507933587
1.9852265043727555
1.9852205487789849
1.9852210043381193
1.985220548672336
1.9852205735876576
1.985220548668321
1.9852205496854523
1.985220548668202
1.9852205487321473
1.985220548668202
1.9852205496854523
1.985220548668321
1.9852205735876576
1.985220548672336
1.9852210043381193
1.9852205487789849
1.9852265043727555
1.9852205507933587
1.9852732473909671
1.9852205723266494
1.9855163324811818
1.9852206356424269
1.9862182123763734
1.9852202766611886
1.9875683491468141
1.9922155832798867
1.9926975320833817
1.9922157517472594
1.9923660035698085
1.9922157332708168
1.9922432604107638
1.9922157256916677
1.9922188791643394
1.9922157249671344
1.992215967649525
1.9922157249286023
1.9922157382224857
1.9922157249271584
1.9922157254695068
1.9922157249271177
1.9922157249611503
1.9922157249271177
1.9922157254695068
1.9922157249271584
1.9922157382224857
1.9922157249286023
1.992215967649525
1.9922157249671344
1.9922188791643394
1.9922157256916677
1.9922432604107638
1.9922157332708168
1.9923660035698085
1.9922157517472594
1.9926975320833817
1.9922155832798867
1.993307149075715
1.9954951818122291
1.9958732276628579
1.9954952390607859
1.9956001467532754
1.9954952318786836
1.9955129608096072
1.9954952293045243
1.9954971558369183
1.9954952290730674
1.9954953721810131
1.9954952290612822
1.9954952367099168
1.9954952290608539
1.9954952293673813
1.9954952290608405
1.99549522907982
1.9954952290608405
1.9954952293673813
1.9954952290608539
1.9954952367099168
1.9954952290612822
1.9954953721810131
1.9954952290730674
1.9954971558369183
1.9954952293045243
1.9955129608096072
1.9954952318786836
1.9956001467532754
1.9954952390607859
1.9958732276628579
1.9954951818122291
1.9964063974185799
1.9993872113580893
1.9988169051441507
1.9993875355693231
1.9992556815538021
1.9993875259481957
1.9993702389835233
1.9993875164188364
1.999386117727727
1.9993875154130487
1.9993874409251691
1.99938751535529
1.999387512647945
1.9993875153530216
1.9993875152858986
1.9993875153529546
1.9993875153508811
1.9993875153529546
1.9993875152858986
1.9993875153530216
1.999387512647945
1.99938751535529
1.9993874409251691
1.9993875154130487
1.999386117727727
1.9993875164188364
1.9993702389835233
1.9993875259481957
1.9992556815538021
1.9993875355693231
1.9988169051441507
1.9993872113580893
1.9980732653366724
1.9986605228437186
1.9987922209001459
1.9986605270596558
1.9986972934752247
1.9986605270581852
1.9986667573057868
1.998660527210844
1.9986612034149351
1.9986605272419771
1.9986605772717654
1.998660527244555
1.9986605299032274
1.9986605272446827
1.998660527350522
1.9986605272446867
1.9986605272511924
1.9986605272446867
1.998660527350522
1.9986605272446827
1.9986605299032274
1.998660527244555
1.9986605772717654
1.9986605272419771
1.9986612034149351
1.998660527210844
1.9986667573057868
1.9986605270581852
1.9986972934752247
1.9986605270596558
1.9987922209001459
1.9986605228437186
1.9989677689632452
2.0038421339642927
2.0015669045822673
2.0038442486607022
2.003137716654102
2.0038438737689601
2.0037187255042217
2.0038437318881903
2.0038300697303288
2.0038437177921273
2.0038427223814974
2.0038437169992518
2.0038436655234606
2.0038437169677565
2.0038437149876485
2.0038437169668044
2.0038437168496852
2.0038437169668044
2.0038437149876485
2.0038437169677565
2.0038436655234606
2.0038437169992518
2.0038427223814974
2.0038437177921273
2.0038300697303288
2.0038437318881903
2.0037187255042217
2.0038438737689601
2.003137716654102
2.0038442486607022
2.0015669045822673
2.0038421339642927
1.9994472213630763
1.9996296392223243
1.9996714279187537
1.9996296254988604
1.9996443717546455
1.999629630755448
1.9996327347482139
1.9996296332326311
1.9996300352500833
1.9996296335701425
1.9996296678122949
1.9996296335946604
1.9996296356325605
1.9996296335958306
1.999629633684828
1.9996296335958723
1.9996296336017776
1.9996296335958723
1.999629633684828
1.9996296335958306
1.9996296356325605
1.9996296335946604
1.9996296678122949
1.9996296335701425
1.9996300352500833
1.9996296332326311
1.9996327347482139
1.999629630755448
1.9996443717546455
1.9996296254988604
1.9996714279187537
1.9996296392223243
1.999704042886487
2.0063864591994869
2.0028556402812496
2.0063927657698368
2.0050492581467187
2.0063899777418133
2.0060962763947647
2.0063891448634208
2.0063505791656109
2.0063890569724916
2.006385758541025
2.0063890517231528
2.0063888552826548
2.0063890515040983
2.0063890429282196
2.0063890514971257
2.0063890509283824
2.0063890514971257
2.0063890429282196
2.0063890515040983
2.0063888552826548
2.0063890517231528
2.006385758541025
2.0063890569724916
2.0063505791656109
2.0063891448634208
2.0060962763947647
2.0063899777418133
2.0050492581467187
2.0063927657698368
2.0028556402812496
2.0063864591994869
1.9998415637808975
1.9999151889582765
1.9999151889582765
1.9999151889582765
1.9999151889582765
1.9999151889582765
1.9999151889582765
1.9999151889582765
1.9999151889582765
1.9999151889582765
1.9999151889582765
1.9999151889582765
1.9999151889582765
1.9999151889582765
1.9999151889582765
1.9999151889582765
1.9999151889582765
1.9999151889582765
1.9999151889582765
1.9999151889582765
1.9999151889582765
1.9999151889582765
1.9999151889582765
1.9999151889582765
1.9999151889582765
1.9999151889582765
1.9999151889582765
1.9999151889582765
1.9999151889582765
1.9999151889582765
1.9999151889582765
1.9999151889582765
1.9999151889582765
1.0043070762075974
1.0022544680060381
1.0043174635441763
1.0030590400845885
1.0043161491198835
1.0037432831721464
1.0043139470726525
1.004150485303634
1.0043131898831945
1.0042831530446321
1.0043130668508955
1.004309286962199
1.004313054613776
1.0043127096800988
1.004313053754629
1.0043130067127226
1.004313053754629
1.0043127096800988
1.004313054613776
1.004309286962199
1.0043130668508955
1.0042831530446321
1.0043131898831945
1.004150485303634
1.0043139470726525
1.0037432831721464
1.0043161491198835
1.0030590400845885
1.0043174635441763
1.0022544680060381
1.0043070762075974
1.0000453978687025
1.0000797657871285
1.0000843675062878
1.0000797487340611
1.0000817613878101
1.0000797460650663
1.0000803845630848
1.0000797481374664
1.0000799164252581
1.0000797490736586
1.000079782821321
1.0000797492514928
1.0000797541123927
1.0000797492715248
1.0000797497799454
1.0000797492730671
1.0000797493513633
1.0000797492730671
1.0000797497799454
1.0000797492715248
1.0000797541123927
1.0000797492514928
1.000079782821321
1.0000797490736586
1.0000799164252581
1.0000797481374664
1.0000803845630848
1.0000797460650663
1.0000817613878101
1.0000797487340611
1.0000843675062878
1.0000797657871285
1.0000848110417238
1.002736329941599
1.0009534825137809
1.0027412979770483
1.0016664362622643
1.0027415642997013
1.0023189661346328
1.0027407326224325
1.0026381172685386
1.0027404573719458
1.0027241794644619
1.002740417438686
1.0027386205012827
1.0027404138493534
1.0027402681689743
1.0027404136177402
1.0027403957476635
1.0027404136177402
1.0027402681689743
1.0027404138493534
1.0027386205012827
1.002740417438686
1.0027241794644619
1.0027404573719458
1.0026381172685386
1.0027407326224325
1.0023189661346328
1.0027415642997013
1.0016664362622643
1.0027412979770483
1.0009534825137809
1.002736329941599
1.0001584362191025
1.0002854842957247
1.0002918320499461
1.0002854940757149
1.0002879571333942
1.0002854918822561
1.0002862817415157
1.0002854909168024
1.0002856888685081
1.0002854908338383
1.0002855261528523
1.0002854908387342
1.0002854952849436
1.0002854908402963
1.0002854912484855
1.0002854908404573
1.0002854908964278
1.0002854908404573
1.0002854912484855
1.0002854908402963
1.0002854952849436
1.0002854908387342
1.0002855261528523
1.0002854908338383
1.0002856888685081
1.0002854909168024
1.0002862817415157
1.0002854918822561
1.0002879571333942
1.0002854940757149
1.0002918320499461
1.0002854842957247
1.0002959571135133
1.0024556889715932
1.0012166062010814
1.0024572304574202
1.0018558557379544
1.0024574381514122
1.00227222814702
1.002457288399158
1.0024208847591916
1.0024572417517079
1.0024524087948286
1.0024572355764152
1.0024567777128013
1.002457235060394
1.0024572026318945
1.002457235029192
1.0024572315006748
1.002457235029192
1.0024572026318945
1.002457235060394
1.0024567777128013
1.0024572355764152
1.0024524087948286
1.0024572417517079
1.0024208847591916
1.002457288399158
1.00227222814702
1.0024574381514122
1.0018558557379544
1.0024572304574202
1.0012166062010814
1.0024556889715932
1.0005527786369237
1.0009708055477
1.00100821651064
1.0009708124130998
1.0009869499087529
1.0009708125647019
1.0009756883556615
1.0009708121410301
1.0009718215152623
1.0009708120557841
1.0009709586180837
1.0009708120477099
1.0009708275242135
1.000970812047244
1.0009708132815036
1.0009708120472296
1.0009708121990277
1.0009708120472296
1.0009708132815036
1.000970812047244
1.0009708275242135
1.0009708120477099
1.0009709586180837
1.0009708120557841
1.0009718215152623
1.0009708121410301
1.0009756883556615
1.0009708125647019
1.0009869499087529
1.0009708124130998
1.00100821651064
1.0009708055477
1.001032231036755
1.0027311246292825
1.0022851742867043
1.0027314360803172
1.0025625383482799
1.0027314899087616
1.0026914018850681
1.0027314764417412
1.0027253350236351
1.0027314719292402
1.0027308341170029
1.0027314713484774
1.0027314246532528
1.0027314713018005
1.0027314688371942
1.0027314712991129
1.0027314711132522
1.0027314712991129
1.0027314688371942
1.0027314713018005
1.0027314246532528
1.0027314713484774
1.0027308341170029
1.0027314719292402
1.0027253350236351
1.0027314764417412
1.0026914018850681
1.0027314899087616
1.0025625383482799
1.0027314360803172
1.0022851742867043
1.0027311246292825
1.0019267346633276
1.0034135462758722
1.0035276533259374
1.0034135625360643
1.0034640087072169
1.0034135640608681
1.0034289165847481
1.0034135629031049
1.0034167338594457
1.0034135625845519
1.0034140208196716
1.0034135625457545
1.0034136107189757
1.0034135625427296
1.0034135663714523
1.003413562542556
1.0034135630123429
1.003413562542556
1.0034135663714523
1.0034135625427296
1.0034136107189757
1.0034135625457545
1.0034140208196716
1.0034135625845519
1.0034167338594457
1.0034135629031049
1.0034289165847481
1.0034135640608681
1.0034640087072169
1.0034135625360643
1.0035276533259374
1.0034135462758722
1.0035936025814203
1.0066797267458283
1.006730421170609
1.0066797983461551
1.0067194399157016
1.0066798085703439
1.0066963703761465
1.0066798052674297
1.0066838721062112
1.006679804215961
1.0066804534977523
1.0066798040821425
1.0066798766047456
1.0066798040715166
1.0066798100625087
1.0066798040709051
1.0066798048247245
1.0066798040709051
1.0066798100625087
1.0066798040715166
1.0066798766047456
1.0066798040821425
1.0066804534977523
1.006679804215961
1.0066838721062112
1.0066798052674297
1.0066963703761465
1.0066798085703439
1.0067194399157016
1.0066797983461551
1.006730421170609
1.0066797267458283
1.006692850924285
1.0120551094018762
1.0123116401796499
1.0120551842578631
1.012174481607433
1.0120551878306407
1.0120932717454127
1.0120551803558144
1.0120633306764641
1.0120551783658391
1.0120563855708238
1.0120551781211193
1.0120553071761123
1.0120551781017821
1.0120551884745028
1.0120551781006584
1.0120551793825789
1.0120551781006584
1.0120551884745028
1.0120551781017821
1.0120553071761123
1.0120551781211193
1.0120563855708238
1.0120551783658391
1.0120633306764641
1.0120551803558144
1.0120932717454127
1.0120551878306407
1.012174481607433
1.0120551842578631
1.0123116401796499
1.0120551094018762
1.0124316508531859
1.0225218220056784
1.0228589144128708
1.0225219737558273
1.0226869302358965
1.0225219761886026
1.0225768470077479
1.022521958979145
1.0225340127988463
1.0225219544839228
1.0225237677476764
1.0225219539305033
1.0225221494697201
1.0225219538866543
1.0225219696709344
1.0225219538840964
1.0225219558375058
1.0225219538840964
1.0225219696709344
1.0225219538866543
1.0225221494697201
1.0225219539305033
1.0225237677476764
1.0225219544839228
1.0225340127988463
1.022521958979145
1.0225768470077479
1.0225219761886026
1.0226869302358965
1.0225219737558273
1.0228589144128708
1.0225218220056784
1.0229773699100257
1.0414445665519936
1.0419203078793489
1.0414448486406083
1.0416767699595144
1.0414448387880924
1.0415225928191947
1.0414448017057885
1.041462001424954
1.041444792364006
1.041447388016264
1.0414447912225853
1.0414450710347174
1.0414447911323774
1.0414448136463508
1.0414447911271165
1.0414447938985223
1.0414447911271165
1.0414448136463508
1.0414447911323774
1.0414450710347174
1.0414447912225853
1.041447388016264
1.041444792364006
1.041462001424954
1.0414448017057885
1.0415225928191947
1.0414448387880924
1.0416767699595144
1.0414448486406083
1.0419203078793489
1.0414445665519936
1.0420877279156189
1.0750402149761513
1.0756494202477871
1.0750407148009218
1.0753420569775971
1.0750406694029742
1.0751435172870583
1.0750405964156482
1.0750635338382326
1.0750405787265778
1.0750440384978326
1.0750405765923903
1.0750409470760562
1.0750405764250899
1.0750406059066937
1.0750405764154103
1.0750405799942837
1.0750405764154103
1.0750406059066937
1.0750405764250899
1.0750409470760562
1.0750405765923903
1.0750440384978326
1.0750405787265778
1.0750635338382326
1.0750405964156482
1.0751435172870583
1.0750406694029742
1.0753420569775971
1.0750407148009218
1.0756494202477871
1.0750402149761513
1.0758581800212434
1.1318609279196241
1.1326189230580836
1.1318617485917843
1.1322383777279494
1.131861620648138
1.131991206460137
1.1318614895436425
1.1318902918134446
1.1318614593127037
1.1318657465528468
1.1318614557532136
1.1318619056804002
1.1318614554794661
1.131861490389021
1.1318614554639144
1.1318614595821064
1.1318614554639144
1.131861490389021
1.1318614554794661
1.1318619056804002
1.1318614557532136
1.1318657465528468
1.1318614593127037
1.1318902918134446
1.1318614895436425
1.131991206460137
1.131861620648138
1.1322383777279494
1.1318617485917843
1.1326189230580836
1.1318609279196241
1.1329642401978293
1.221099153862611
1.2220000164619844
1.221100362616794
1.2215503133545056
1.2211000866503741
1.2212548985496665
1.2210998760767697
1.2211337174056276
1.2210998303312048
1.2211047215313013
1.2210998251460612
1.2211003190544547
1.2210998247603981
1.2210998613779209
1.2210998247392257
1.2210998288481187
1.2210998247392257
1.2210998613779209
1.2210998247603981
1.2211003190544547
1.2210998251460612
1.2211047215313013
1.2210998303312048
1.2211337174056276
1.2210998760767697
1.2212548985496665
1.2211000866503741
1.2215503133545056
1.221100362616794
1.2220000164619844
1.221099153862611
1.2227001388253087
1.346228109996038
1.3472385978962851
1.3462296676804724
1.3467417935441881
1.3462291946322569
1.3464040257664749
1.346228898593367
1.3462658197005335
1.3462288386153354
1.3462339030771604
1.346228832205663
1.3462293120444671
1.3462288317558631
1.3462288648720788
1.3462288317326421
1.3462288351769001
1.3462288317326421
1.3462288648720788
1.3462288317558631
1.3462293120444671
1.346228832205663
1.3462339030771604
1.3462288386153354
1.3462658197005335
1.346228898593367
1.3464040257664749
1.3462291946322569
1.3467417935441881
1.3462296676804724
1.3472385978962851
1.346228109996038
1.3486451353339457
1.4965972324848058
1.497671929309778
1.4965989702423443
1.4971569204043074
1.4965983410647739
1.496782953039401
1.4965979946201171
1.4966345197948798
1.4965979306251012
1.496602549740824
1.49659792437364
1.4965983247285506
1.4965979239717049
1.4965979491412036
1.4965979239526981
1.4965979263347486
1.4965979239526981
1.4965979491412036
1.4965979239717049
1.4965983247285506
1.49659792437364
1.496602549740824
1.4965979306251012
1.4966345197948798
1.4965979946201171
1.496782953039401
1.4965983410647739
1.4971569204043074
1.4965989702423443
1.497671929309778
1.4965972324848058
1.5
1.6472669055338429
1.6483873512027061
1.6472685279276684
1.6478440975015494
1.6472679211794605
1.647444077179177
1.6472676119408163
1.6472992355757141
1.6472675606287179
1.6472711757159073
1.6472675561029275
1.6472678394215494