# vtk DataFile Version 3.0
Euler density step 208
ASCII
DATASET STRUCTURED_POINTS
DIMENSIONS 32 32 32
ORIGIN 0 0 0
SPACING 0.3125 0.3125 0.3125
POINT_DATA 32768
SCALARS density double 1
LOOKUP_TABLE default
1.003738154252857
1.0019445907376803
1.0037403577605029
1.0032771311899964
1.0037397940394261
1.0036700408545887
1.0037396704233175
1.0037331454360685
1.0037396617806609
1.0037392546879269
1.0037396614528378
1.0037396435313906
1.0037396614451863
1.0037396608639413
1.0037396614450915
1.0037396614164384
1.0037396614450915
1.0037396608639413
1.0037396614451863
1.0037396435313906
1.0037396614528378
1.0037392546879269
1.0037396617806609
1.0037331454360685
1.0037396704233175
1.0036700408545887
1.0037397940394261
1.0032771311899964
1.0037403577605029
1.0019445907376803
1.003738154252857
1.0000453978687025
1.0000883593371348
1.0000882443219339
1.0000883580668276
1.0000885307915015
1.000088358176676
1.0000884087448405
1.0000883582394997
1.0000883649712136
1.0000883582451525
1.0000883587816867
1.0000883582453872
1.0000883582740296
1.0000883582453928
1.000088358246487
1.0000883582453928
1.0000883582454558
1.0000883582453928
1.000088358246487
1.0000883582453928
1.0000883582740296
1.0000883582453872
1.0000883587816867
1.0000883582451525
1.0000883649712136
1.0000883582394997
1.0000884087448405
1.000088358176676
1.0000885307915015
1.0000883580668276
1.0000882443219339
1.0000883593371348
1.0000848110417238
1.0023265251080886
1.001486043901165
1.002327090113599
1.0021459426889159
1.0023270425225246
1.002304407075475
1.0023270289200295
1.0023252438253309
1.0023270280576764
1.0023269326488822
1.002327028030283
1.002327024385089
1.0023270280298582
1.0023270279262386
1.0023270280298597
1.0023270280253482
1.0023270280298597
1.0023270279262386
1.0023270280298582
1.002327024385089
1.002327028030283
1.0023269326488822
1.0023270280576764
1.0023252438253309
1.0023270289200295
1.002304407075475
1.0023270425225246
1.0021459426889159
1.002327090113599
1.001486043901165
1.0023265251080886
1.0001584362191025
1.0002942867049329
1.0002956445667912
1.0002942867869575
1.0002946957753425
1.0002942867694864
1.0002943535549755
1.0002942867706957
1.000294293357189
1.0002942867709155
1.0002942872008558
1.0002942867709248
1.0002942867907585
1.0002942867709248
1.0002942867716038
1.0002942867709248
1.0002942867709601
1.0002942867709248
1.0002942867716038
1.0002942867709248
1.0002942867907585
1.0002942867709248
1.0002942872008558
1.0002942867709155
1.000294293357189
1.0002942867706957
1.0002943535549755
1.0002942867694864
1.0002946957753425
1.0002942867869575
1.0002956445667912
1.0002942867049329
1.0002959571135133
1.0011270809320316
1.0009388562383708
1.0011271416781913
1.0010942189789589
1.0011271415769185
1.0011237677497131
1.0011271410263314
1.001126919126796
1.0011271409939564
1.0011271309755316
1.0011271409932627
1.0011271406675353
1.0011271409932698
1.0011271409853806
1.0011271409932716
1.0011271409929801
1.0011271409932716
1.0011271409853806
1.0011271409932698
1.0011271406675353
1.0011271409932627
1.0011271309755316
1.0011271409939564
1.001126919126796
1.0011271410263314
1.0011237677497131
1.0011271415769185
1.0010942189789589
1.0011271416781913
1.0009388562383708
1.0011270809320316
1.0005527786369237
1.0010170979420725
1.0010240009269313
1.0010170979888469
1.0010186352515398
1.0010170979845618
1.0010173053714559
1.0010170979835726
1.00101711618596
1.0010170979835056
1.0010170990895204
1.0010170979835031
1.0010170980323432
1.0010170979835031
1.0010170979851309
1.0010170979835031
1.0010170979835875
1.0010170979835031
1.0010170979851309
1.0010170979835031
1.0010170980323432
1.0010170979835031
1.0010170990895204
1.0010170979835056
1.00101711618596
1.0010170979835726
1.0010173053714559
1.0010170979845618
1.0010186352515398
1.0010170979888469
1.0010240009269313
1.0010170979420725
1.001032231036755
1.001985568321959
1.0019738962346685
1.0019855719183175
1.0019848071983231
1.0019855720360193
1.001985637381418
1.0019855720248567
1.0019855872198427
1.0019855720242561
1.0019855733140961
1.0019855720242592
1.0019855720916522
1.0019855720242603
1.0019855720267346
1.0019855720242603
1.001985572024396
1.0019855720242603
1.0019855720267346
1.0019855720242603
1.0019855720916522
1.0019855720242592
1.0019855733140961
1.0019855720242561
1.0019855872198427
1.0019855720248567
1.001985637381418
1.0019855720360193
1.0019848071983231
1.0019855719183175
1.0019738962346685
1.001985568321959
1.0019267346633276
1.0035435956212133
1.0035663737942744
1.0035435961014818
1.003548638042141
1.0035435960707935
1.0035442735542193
1.0035435960600592
1.0035436553587762
1.0035435960592807
1.0035435996539408
1.0035435960592503
1.003543596217612
1.0035435960592491
1.0035435960645163
1.0035435960592491
1.0035435960595207
1.0035435960592491
1.0035435960645163
1.0035435960592491
1.003543596217612
1.0035435960592503
1.0035435996539408
1.0035435960592807
1.0035436553587762
1.0035435960600592
1.0035442735542193
1.0035435960707935
1.003548638042141
1.0035435961014818
1.0035663737942744
1.0035435956212133
1.0035936025814203
1.0066138132540567
1.0066520933982506
1.0066138147746611
1.0066225178292547
1.0066138146750188
1.0066150020121745
1.0066138146409898
1.0066139193895363
1.0066138146385448
1.0066138210120041
1.0066138146384445
1.006613814919594
1.0066138146384418
1.006613814647789
1.0066138146384418
1.0066138146389239
1.0066138146384418
1.006613814647789
1.0066138146384418
1.006613814919594
1.0066138146384445
1.0066138210120041
1.0066138146385448
1.0066139193895363
1.0066138146409898
1.0066150020121745
1.0066138146750188
1.0066225178292547
1.0066138147746611
1.0066520933982506
1.0066138132540567
1.006692850924285
1.0122843374742794
1.0123536819390433
1.0122843413993403
1.0122998462641899
1.0122843410295004
1.0122864371297422
1.0122843409235107
1.0122845248217258
1.0122843409159823
1.0122843520593499
1.0122843409156701
1.0122843414054428
1.0122843409156617
1.0122843409318885
1.0122843409156614
1.0122843409164957
1.0122843409156614
1.0122843409318885
1.0122843409156617
1.0122843414054428
1.0122843409156701
1.0122843520593499
1.0122843409159823
1.0122845248217258
1.0122843409235107
1.0122864371297422
1.0122843410295004
1.0122998462641899
1.0122843413993403
1.0123536819390433
1.0122843374742794
1.0124316508531859
1.0227359250054038
1.0228520925489446
1.0227359352969534
1.0227620300483751
1.022735934089585
1.0227394685660198
1.0227359337784647
1.0227362436421297
1.0227359337566762
1.0227359524820474
1.0227359337557806
1.0227359345753886
1.0227359337557538
1.0227359337827688
1.0227359337557536
1.0227359337571331
1.0227359337557536
1.0227359337827688
1.0227359337557538
1.0227359345753886
1.0227359337557806
1.0227359524820474
1.0227359337566762
1.0227362436421297
1.0227359337784647
1.0227394685660198
1.022735934089585
1.0227620300483751
1.0227359352969534
1.0228520925489446
1.0227359250054038
1.0229773699100257
1.0417020336899807
1.0418907693200363
1.0417020589240413
1.0417444779151046
1.041702055208201
1.0417077890069748
1.0417020543499957
1.0417025545040444
1.0417020542910782
1.0417020842925448
1.0417020542886732
1.04170205558977
1.0417020542886031
1.0417020543310331
1.0417020542886013
1.0417020542907427
1.0417020542886013
1.0417020543310331
1.0417020542886031
1.04170205558977
1.0417020542886732
1.0417020842925448
1.0417020542910782
1.0417025545040444
1.0417020543499957
1.0417077890069748
1.041702055208201
1.0417444779151046
1.0417020589240413
1.0418907693200363
1.0417020336899807
1.0420877279156189
1.0752571086926208
1.0755528870314592
1.0752571660250623
1.0753233520313481
1.075257155380972
1.0752660292814378
1.0752571531862722
1.0752579178325414
1.0752571530397781
1.0752571982010504
1.0752571530338733
1.0752571549574532
1.0752571530337007
1.0752571530951855
1.0752571530336967
1.075257153036735
1.0752571530336967
1.0752571530951855
1.0752571530337007
1.0752571549574532
1.0752571530338733
1.0752571982010504
1.0752571530397781
1.0752579178325414
1.0752571531862722
1.0752660292814378
1.075257155380972
1.0753233520313481
1.0752571660250623
1.0755528870314592
1.0752571086926208
1.0758581800212434
1.1320363572244996
1.1324826805233725
1.1320364763565196
1.1321351875154719
1.1320364484051251
1.1320494527931042
1.1320364432885974
1.1320375378449072
1.1320364429603966
1.1320365058081252
1.1320364429474792
1.1320364455401897
1.132036442947107
1.1320364430271252
1.1320364429470993
1.1320364429509062
1.1320364429470993
1.1320364430271252
1.132036442947107
1.1320364455401897
1.1320364429474792
1.1320365058081252
1.1320364429603966
1.1320375378449072
1.1320364432885974
1.1320494527931042
1.1320364484051251
1.1321351875154719
1.1320364763565196
1.1324826805233725
1.1320363572244996
1.1329642401978293
1.2212715789034123
1.221915487283969
1.2212717995072031
1.2214115965883203
1.221271733751059
1.2212896206511632
1.2212717231163053
1.2212731712532554
1.2212717224701517
1.2212718018545976
1.2212717224456759
1.2212717255542522
1.2212717224449949
1.2212717225356466
1.2212717224449801
1.2212717224490417
1.2212717224449801
1.2212717225356466
1.2212717224449949
1.2212717255542522
1.2212717224456759
1.2212718018545976
1.2212717224701517
1.2212731712532554
1.2212717231163053
1.2212896206511632
1.221271733751059
1.2214115965883203
1.2212717995072031
1.221915487283969
1.2212715789034123
1.2227001388253087
1.3464838328582707
1.3473617237781581
1.3464841875094975
1.3466700882287506
1.3464840533619449
1.3465068100924054
1.3464840343234334
1.3464857716566931
1.3464840332518977
1.3464841221615405
1.3464840332138615
1.3464840364413511
1.3464840332128702
1.3464840332996788
1.3464840332128507
1.3464840332164232
1.3464840332128507
1.3464840332996788
1.3464840332128702
1.3464840364413511
1.3464840332138615
1.3464841221615405
1.3464840332518977
1.3464857716566931
1.3464840343234334
1.3465068100924054
1.3464840533619449
1.3466700882287506
1.3464841875094975
1.3473617237781581
1.3464838328582707
1.3486451353339457
1.496925182788261
1.4980336205438629
1.4969256640009048
1.4971517593361681
1.4969254439635609
1.4969514401127015
1.4969254167947523
1.4969272529591817
1.4969254154150842
1.4969255015779146
1.496925415370463
1.4969254182226901
1.4969254153694009
1.4969254154391058
1.4969254153693825
1.4969254153719855
1.4969254153693825
1.4969254154391058
1.4969254153694009
1.4969254182226901
1.496925415370463
1.4969255015779146
1.4969254154150842
1.4969272529591817
1.4969254167947523
1.4969514401127015
1.4969254439635609
1.4971517593361681
1.4969256640009048
1.4980336205438629
1.496925182788261
1.5
1.6474861487853965
1.6487382393828558
1.6474866736351592
1.6477285859629416
1.647486409752142
1.6475122072124699
1.6474863812428071
1.647488054846769
1.6474863799470429
1.6474864517339356
1.6474863799091304
1.6474863820757293
1.6474863799083117
1.6474863799565147
1.6474863799082979
1.6474863799099349
1.6474863799082979
1.6474863799565147
1.6474863799083117
1.6474863820757293
1.6474863799091304
1.6474864517339356
1.6474863799470429
1.647488054846769
1.6474863812428071
1.6475122072124699
1.647486409752142
1.6477285859629416
1.6474866736351592
1.6487382393828558
1.6474861487853965
1.6513548646660543
1.7731711936049255
1.7744010177659668
1.7731716449010912
1.7733944416322505
1.7731714203633162
1.7731934602455546
1.7731713985945217
1.7731727210481607
1.7731713976955348
1.7731714501195708
1.773171397671393
1.773171399133409
1.773171397670912
1.7731713977009662
1.7731713976709047
1.7731713976718488
1.7731713976709047
1.7731713977009662
1.773171397670912
1.773171399133409
1.773171397671393
1.7731714501195708
1.7731713976955348
1.7731727210481607
1.7731713985945217
1.7731934602455546
1.7731714203633162
1.7733944416322505
1.7731716449010912
1.7744010177659668
1.7731711936049255
1.7772998611746911
1.86330565069648
1.8643537688495784
1.8633059657815243
1.8634840574761
1.8633058241619402
1.8633223234532204
1.8633058114446714
1.8633067404514032
1.8633058109561205
1.8633058455815481
1.8633058109438236
1.8633058118530355
1.8633058109435954
1.8633058109612108
1.8633058109435914
1.8633058109441112
1.8633058109435914
1.8633058109612108
1.8633058109435954
1.8633058118530355
1.8633058109438236
1.8633058455815481
1.8633058109561205
1.8633067404514032
1.8633058114446714
1.8633223234532204
1.8633058241619402
1.8634840574761
1.8633059657815243
1.8643537688495784
1.86330565069648
1.8670357598021707
1.9212182834588158
1.9220071683637163
1.9212184678259272
1.9213451499660981
1.9212183969607739
1.9212295329621818
1.9212183909063032
1.9212189885860107
1.9212183906853251
1.9212184119910638
1.9212183906800187
1.9212183912163407
1.9212183906799236
1.9212183906899001
1.9212183906799223
1.9212183906802063
1.9212183906799223
1.9212183906899001
1.9212183906799236
1.9212183912163407
1.9212183906800187
1.9212184119910638
1.9212183906853251
1.9212189885860107
1.9212183909063032
1.9212295329621818
1.9212183969607739
1.9213451499660981
1.9212184678259272
1.9220071683637163
1.9212182834588158
1.9241418199787566
1.9558619235582082
1.9563993113014424
1.9558620158068061
1.9559444561559756
1.9558619859298652
1.9558689517841346
1.955861983452893
1.9558623447487389
1.9558619833655901
1.955861995858545
1.9558619833635591
1.9558619836693905
1.955861983363524
1.9558619833690682
1.9558619833635236
1.9558619833636779
1.9558619833635236
1.9558619833690682
1.955861983363524
1.9558619836693905
1.9558619833635591
1.955861995858545
1.9558619833655901
1.9558623447487389
1.955861983452893
1.9558689517841346
1.9558619859298652
1.9559444561559756
1.9558620158068061
1.9563993113014424
1.9558619235582082
1.9579122720843811
1.9757010698124999
1.9760402391702709
1.9757011101388342
1.9757513800256601
1.9757010990170778
1.9757052282069776
1.9757010981098744
1.9757013073405727
1.9757010980786243
1.9757011051705973
1.9757010980779155
1.9757010982484919
1.975701098077902
1.9757010980809442
1.975701098077902
1.9757010980779843
1.975701098077902
1.9757010980809442
1.975701098077902
1.9757010982484919
1.9757010980779155
1.9757011051705973
1.9757010980786243
1.9757013073405727
1.9757010981098744
1.9757052282069776
1.9757010990170778
1.9757513800256601
1.9757011101388342
1.9760402391702709
1.9757010698124999
1.9770226300899743
1.9867649471536557
1.9869678713973906
1.9867649629355655
1.9867942787127764
1.9867649591424039
1.9867673199545031
1.9867649588353644
1.9867650766179508
1.9867649588249461
1.9867649627668089
1.9867649588247127
1.9867649589185004
1.9867649588247096
1.9867649588263645
1.9867649588247094
1.9867649588247545
1.9867649588247094
1.9867649588263645
1.9867649588247096
1.9867649589185004
1.9867649588247127
1.9867649627668089
1.9867649588249461
1.9867650766179508
1.9867649588353644
1.9867673199545031
1.9867649591424039
1.9867942787127764
1.9867649629355655
1.9869678713973906
1.9867649471536557
1.9875683491468141
1.9928676376635781
1.992979437173872
1.9928676435753392
1.9928837953555201
1.9928676423779681
1.9928689391163452
1.9928676422795175
1.9928677067097067
1.9928676422761804
1.9928676444231743
1.9928676422761069
1.9928676423269711
1.9928676422761049
1.9928676422769995
1.9928676422761049
1.9928676422761296
1.9928676422761049
1.9928676422769995
1.9928676422761049
1.9928676423269711
1.9928676422761069
1.9928676444231743
1.9928676422761804
1.9928677067097067
1.9928676422795175
1.9928689391163452
1.9928676423779681
1.9928837953555201
1.9928676435753392
1.992979437173872
1.9928676376635781
1.993307149075715
1.9961421078847426
1.9962078932855343
1.9961421097742627
1.9961513325609741
1.996142109397792
1.9961428360536253
1.996142109367486
1.9961421450391164
1.9961421093664746
1.9961421105454198
1.996142109366454
1.9961421093942191
1.9961421093664535
1.9961421093669389
1.9961421093664535
1.996142109366466
1.9961421093664535
1.9961421093669389
1.9961421093664535
1.9961421093942191
1.996142109366454
1.9961421105454198
1.9961421093664746
1.9961421450391164
1.996142109367486
1.9961428360536253
1.996142109397792
1.9961513325609741
1.9961421097742627
1.9962078932855343
1.9961421078847426
1.9964063974185799
1.9982367255557236
1.9982045229379746
1.9982367356147186
1.9982346455540663
1.9982367352095618
1.9982367110107588
1.9982367351474395
1.9982367388112106
1.9982367351448658
1.9982367353800889
1.9982367351448023
1.9982367351522998
1.9982367351448018
1.998236735144959
1.9982367351448018
1.9982367351448063
1.9982367351448018
1.998236735144959
1.9982367351448018
1.9982367351522998
1.9982367351448023
1.9982367353800889
1.9982367351448658
1.9982367388112106
1.9982367351474395
1.9982367110107588
1.9982367352095618
1.9982346455540663
1.9982367356147186
1.9982045229379746
1.9982367255557236
1.9980732653366724
1.9988846968163714
1.9989060376719494
1.9988846968823895
1.9988876690114483
1.9988846968713796
1.9988849291604645
1.9988846968718754
1.998884708185048
1.9988846968719394
1.9988846972431522
1.9988846968719411
1.9988846968806269
1.9988846968719411
1.9988846968720926
1.9988846968719411
1.9988846968719454
1.9988846968719411
1.9988846968720926
1.9988846968719411
1.9988846968806269
1.9988846968719411
1.9988846972431522
1.9988846968719394
1.998884708185048
1.9988846968718754
1.9988849291604645
1.9988846968713796
1.9988876690114483
1.9988846968823895
1.9989060376719494
1.9988846968163714
1.9989677689632452
2.001203989461755
2.000712716130721
2.0012041428904883
2.0011395116349728
2.0012041221514045
2.0011994717235391
2.0012041201192825
2.0012039132451154
2.0012041200426625
2.0012041138508252
2.0012041200408244
2.001204119908504
2.001204120040792
2.0012041200386839
2.0012041200407911
2.0012041200407396
2.0012041200407911
2.0012041200386839
2.001204120040792
2.001204119908504
2.0012041200408244
2.0012041138508252
2.0012041200426625
2.0012039132451154
2.0012041201192825
2.0011994717235391
2.0012041221514045
2.0011395116349728
2.0012041428904883
2.000712716130721
2.001203989461755
1.9994472213630763
1.9996800257172618
1.9996890632608604
1.9996800250256759
1.9996815682223801
1.9996800254432487
1.9996801637049646
1.9996800254926519
1.9996800329023261
1.9996800254949767
1.9996800257557124
1.9996800254950429
1.9996800255014766
1.9996800254950449
1.9996800254951621
1.9996800254950449
1.9996800254950475
1.9996800254950449
1.9996800254951621
1.9996800254950449
1.9996800255014766
1.9996800254950429
1.9996800257557124
1.9996800254949767
1.9996800329023261
1.9996800254926519
1.9996801637049646
1.9996800254432487
1.9996815682223801
1.9996800250256759
1.9996890632608604
1.9996800257172618
1.999704042886487
2.0044570536124087
2.0029003683993389
2.0044577446262726
2.0041936322939655
2.0044573549983182
2.0044335737262675
2.0044573225307349
2.0044560396858522
2.0044573213431618
2.0044572758999619
2.004457321314705
2.0044573201863005
2.0044573213142014
2.0044573212935988
2.0044573213141947
2.0044573213136232
2.0044573213141947
2.0044573212935988
2.0044573213142014
2.0044573201863005
2.004457321314705
2.0044572758999619
2.0044573213431618
2.0044560396858522
2.0044573225307349
2.0044335737262675
2.0044573549983182
2.0041936322939655
2.0044577446262726
2.0029003683993389
2.0044570536124087
1.9998415637808975
1.9999151889582765
1.9999151889582765
1.9999151889582765
1.9999151889582765
1.9999151889582765
1.9999151889582765
1.9999151889582765
1.9999151889582765
1.9999151889582765
1.9999151889582765
1.9999151889582765
1.9999151889582765
1.9999151889582765
1.9999151889582765
1.9999151889582765
1.9999151889582765
1.9999151889582765
1.9999151889582765
1.9999151889582765
1.9999151889582765
1.9999151889582765
1.9999151889582765
1.9999151889582765
1.9999151889582765
1.9999151889582765
1.9999151889582765
1.9999151889582765
1.9999151889582765
1.9999151889582765
1.9999151889582765
1.9999151889582765
1.9999151889582765
1.0046315289249321
1.0029390288976303
1.0046349851772427
1.0040760886634734
1.0046335672759539
1.0045274656636616
1.0046332055271361
1.0046210683623886
1.0046331712027816
1.0046322655393651
1.004633169299519
1.0046331222672193
1.0046331692257147
1.0046331674394247
1.0046331692235611
1.0046331691208013
1.0046331692235611
1.0046331674394247
1.0046331692257147
1.0046331222672193
1.004633169299519
1.0046322655393651
1.0046331712027816
1.0046210683623886
1.0046332055271361
1.0045274656636616
1.0046335672759539
1.0040760886634734
1.0046349851772427
1.0029390288976303
1.0046315289249321
1.0000453978687025
1.000090466279504
1.0000887924537669
1.0000904649638058
1.0000901972566627
1.0000904648374014
1.0000904492086049
1.0000904649435565
1.0000904660832526
1.0000904649601203
1.0000904652156384
1.0000904649612949
1.000090464981757
1.0000904649613476
1.0000904649623521
1.0000904649613493
1.0000904649614171
1.0000904649613493
1.0000904649623521
1.0000904649613476
1.000090464981757
1.0000904649612949
1.0000904652156384
1.0000904649601203
1.0000904660832526
1.0000904649435565
1.0000904492086049
1.0000904648374014
1.0000901972566627
1.0000904649638058
1.0000887924537669
1.000090466279504
1.0000848110417238
1.0022763675911361
1.0012913402204187
1.0022774424228975
1.002011011393412
1.0022772740601154
1.002236305723893
1.0022772192351905
1.002273330704414
1.0022772142478382
1.0022769678212369
1.0022772139857772
1.0022772029153084
1.0022772139761627
1.0022772136072309
1.0022772139758966
1.0022772139570539
1.0022772139758966
1.0022772136072309
1.0022772139761627
1.0022772029153084
1.0022772139857772
1.0022769678212369
1.0022772142478382
1.002273330704414
1.0022772192351905
1.002236305723893
1.0022772740601154
1.002011011393412
1.0022774424228975
1.0012913402204187
1.0022763675911361
1.0001584362191025
1.0002982710450108
1.0002979490244601
1.0002982723359282
1.0002983655394508
1.0002982721393525
1.0002983100451193
1.0002982721075906
1.0002982775646412
1.0002982721059459
1.0002982725538276
1.000298272105907
1.0002982721301634
1.0002982721059073
1.0002982721068439
1.0002982721059073
1.0002982721059617
1.0002982721059073
1.0002982721068439
1.0002982721059073
1.0002982721301634
1.000298272105907
1.0002982725538276
1.0002982721059459
1.0002982775646412
1.0002982721075906
1.0002983100451193
1.0002982721393525
1.0002983655394508
1.0002982723359282
1.0002979490244601
1.0002982710450108
1.0002959571135133
1.0012778164589538
1.0009963065997312
1.00127796117167
1.0012180868475007
1.0012779551483231
1.0012705650348994
1.0012779515632897
1.0012773722015933
1.0012779512309304
1.0012779202040694
1.0012779512137915
1.0012779500155773
1.0012779512131886
1.0012779511784238
1.0012779512131733
1.0012779512116112
1.0012779512131733
1.0012779511784238
1.0012779512131886
1.0012779500155773
1.0012779512137915
1.0012779202040694
1.0012779512309304
1.0012773722015933
1.0012779515632897
1.0012705650348994
1.0012779551483231
1.0012180868475007
1.00127796117167
1.0009963065997312
1.0012778164589538
1.0005527786369237
1.0010150292717248
1.0010229129519357
1.0010150295218878
1.0010170353308523
1.0010150295014866
1.001015336768198
1.0010150294958184
1.0010150595354064
1.0010150294954052
1.001015031490734
1.0010150294953863
1.0010150295901956
1.0010150294953861
1.0010150294987417
1.0010150294953861
1.0010150294955695
1.0010150294953861
1.0010150294987417
1.0010150294953861
1.0010150295901956
1.0010150294953863
1.001015031490734
1.0010150294954052
1.0010150595354064
1.0010150294958184
1.001015336768198
1.0010150295014866
1.0010170353308523
1.0010150295218878
1.0010229129519357
1.0010150292717248
1.001032231036755
1.0020301099549649
1.0020007219913547
1.002030121177355
1.0020261826905346
1.0020301213032645
1.0020299003204436
1.0020301211573825
1.0020301236658975
1.0020301211428799
1.0020301223447059
1.0020301211421385
1.002030121231771
1.0020301211421134
1.0020301211460696
1.0020301211421123
1.0020301211423588
1.0020301211421123
1.0020301211460696
1.0020301211421134
1.002030121231771
1.0020301211421385
1.0020301223447059
1.0020301211428799
1.0020301236658975
1.0020301211573825
1.0020299003204436
1.0020301213032645
1.0020261826905346
1.002030121177355
1.0020007219913547
1.0020301099549649
1.0019267346633276
1.003533717926067
1.0035607607379076
1.0035337188888422
1.0035405058116
1.0035337187793696
1.0035347483827439
1.0035337187455002
1.0035338187881928
1.0035337187426872
1.0035337253613104
1.0035337187425513
1.0035337190561313
1.0035337187425464
1.0035337187536248
1.0035337187425464
1.0035337187431477
1.0035337187425464
1.0035337187536248
1.0035337187425464
1.0035337190561313
1.0035337187425513
1.0035337253613104
1.0035337187426872
1.0035338187881928
1.0035337187455002
1.0035347483827439
1.0035337187793696
1.0035405058116
1.0035337188888422
1.0035607607379076
1.003533717926067
1.0035936025814203
1.0066058792692754
1.0066483684822136
1.0066058824298429
1.0066171020084487
1.0066058821041659
1.0066076355776739
1.0066058819987649
1.0066060551748028
1.0066058819899282
1.0066058935485933
1.006605881989501
1.0066058825397015
1.0066058819894868
1.0066058820089692
1.0066058819894859
1.0066058819905435
1.0066058819894859
1.0066058820089692
1.0066058819894868
1.0066058825397015
1.006605881989501
1.0066058935485933
1.0066058819899282
1.0066060551748028
1.0066058819987649
1.0066076355776739
1.0066058821041659
1.0066171020084487
1.0066058824298429
1.0066483684822136
1.0066058792692754
1.006692850924285
1.0122628021099533
1.0123409393199791
1.0122628090216517
1.0122828171919682
1.0122628079101064
1.0122658858863014
1.0122628076118934
1.012263109006164
1.0122628075876259
1.0122628275940238
1.0122628075864639
1.01226280853474
1.0122628075864237
1.0122628076198759
1.0122628075864231
1.0122628075882341
1.0122628075864231
1.0122628076198759
1.0122628075864237
1.01226280853474
1.0122628075864639
1.0122628275940238
1.0122628075876259
1.012263109006164
1.0122628076118934
1.0122658858863014
1.0122628079101064
1.0122828171919682
1.0122628090216517
1.0123409393199791
1.0122628021099533
1.0124316508531859
1.0227084332344609
1.0228341861658763
1.0227084500660808
1.0227410118525435
1.0227084467987011
1.0227134894742211
1.0227084459874989
1.0227089408195729
1.0227084459225495
1.0227084787358773
1.0227084459194655
1.0227084474699277
1.0227084459193601
1.0227084459738058
1.0227084459193581
1.0227084459222902
1.0227084459193581
1.0227084459738058
1.0227084459193601
1.0227084474699277
1.0227084459194655
1.0227084787358773
1.0227084459225495
1.0227089408195729
1.0227084459874989
1.0227134894742211
1.0227084467987011
1.0227410118525435
1.0227084500660808
1.0228341861658763
1.0227084332344609
1.0229773699100257
1.0416671405414746
1.0418622955282131
1.0416671783617841
1.0417179982059572
1.0416671694077353
1.0416750536450445
1.0416671673637932
1.0416679386766079
1.0416671672038005
1.0416672180146849
1.0416671671963074
1.0416671695755668
1.0416671671960527
1.0416671672787088
1.0416671671960462
1.0416671672004432
1.0416671671960462
1.0416671672787088
1.0416671671960527
1.0416671695755668
1.0416671671963074
1.0416672180146849
1.0416671672038005
1.0416679386766079
1.0416671673637932
1.0416750536450445
1.0416671694077353
1.0417179982059572
1.0416671783617841
1.0418622955282131
1.0416671405414746
1.0420877279156189
1.0752126804182227
1.0755019988596708
1.0752127580497093
1.0752881689133198
1.0752127355666323
1.0752243751276045
1.0752127308735315
1.0752138564553244
1.0752127305174921
1.0752128034785016
1.0752127305011647
1.0752127338524093
1.0752127305006267
1.0752127306145698
1.0752127305006134
1.0752127305065351
1.0752127305006134
1.0752127306145698
1.0752127305006267
1.0752127338524093
1.0752127305011647
1.0752128034785016
1.0752127305174921
1.0752138564553244
1.0752127308735315
1.0752243751276045
1.0752127355666323
1.0752881689133198
1.0752127580497093
1.0755019988596708
1.0752126804182227
1.0758581800212434
1.1319744796979465
1.1323835775348534
1.1319746225378529
1.1320805070579245
1.1319745718486178
1.1319906459140454
1.1319745622363961
1.1319760776297405
1.1319745615381436
1.131974656713244
1.1319745615071717
1.1319745657246769
1.1319745615061807
1.1319745616440873
1.1319745615061554
1.1319745615130337
1.1319745615061554
1.1319745616440873
1.1319745615061807
1.1319745657246769
1.1319745615071717
1.131974656713244
1.1319745615381436
1.1319760776297405
1.1319745622363961
1.1319906459140454
1.1319745718486178
1.1320805070579245
1.1319746225378529
1.1323835775348534
1.1319744796979465
1.1329642401978293
1.2211902678536131
1.2217379346887649
1.2211904974085142
1.2213301905786682
1.2211903975412612
1.2212109233734687
1.2211903804506792
1.2211922286135724
1.2211903792823364
1.2211904891933054
1.2211903792331706
1.2211903838189562
1.2211903792316816
1.221190379372306
1.2211903792316461
1.2211903792382062
1.2211903792316461
1.221190379372306
1.2211903792316816
1.2211903838189562
1.2211903792331706
1.2211904891933054
1.2211903792823364
1.2211922286135724
1.2211903804506792
1.2212109233734687
1.2211903975412612
1.2213301905786682
1.2211904974085142
1.2217379346887649
1.2211902678536131
1.2227001388253087
1.3464245416670018
1.347114418928502
1.3464248580262068
1.3465959012218205
1.3464246935982576
1.3464484215615504
1.3464246685225791
1.3464266534644957
1.3464246669528284
1.3464247756770702
1.3464246668919471
1.3464246710494177
1.3464246668902486
1.346424667006741
1.3464246668902131
1.346424666895168
1.3464246668902131
1.346424667006741
1.3464246668902486
1.3464246710494177
1.3464246668919471
1.3464247756770702
1.3464246669528284
1.3464266534644957
1.3464246685225791
1.3464484215615504
1.3464246935982576
1.3465959012218205
1.3464248580262068
1.347114418928502
1.3464245416670018
1.3486451353339457
1.497024466155388
1.4978272853896089
1.4970248266647368
1.4972128589297644
1.4970246193923946
1.4970485558258253
1.4970245915714047
1.497026408739188
1.4970245900124182
1.4970246799402349
1.4970245899578276
1.4970245930590831
1.4970245899564483
1.4970245900347667
1.4970245899564216
1.4970245899594286
1.4970245899564216
1.4970245900347667
1.4970245899564483
1.4970245930590831
1.4970245899578276
1.4970246799402349
1.4970245900124182
1.497026408739188
1.4970245915714047
1.4970485558258253
1.4970246193923946
1.4972128589297644
1.4970248266647368
1.4978272853896089
1.497024466155388
1.5
1.6479372134798176
1.6487665517707841
1.6479375383298882
1.6481160192809612
1.647937353072614
1.6479578999958553
1.6479373309979433
1.6479387382639539
1.6479373298877542
1.6479373927526382