# vtk DataFile Version 3.0
Euler density step 58
ASCII
DATASET STRUCTURED_POINTS
DIMENSIONS 32 32 32
ORIGIN 0 0 0
SPACING 0.3125 0.3125 0.3125
POINT_DATA 32768
SCALARS density double 1
LOOKUP_TABLE default
1.0004538686196938
1.0004290625955314
1.0004538690833737
1.000453367010985
1.0004538689583224
1.0004538638477369
1.0004538689575238
1.0004538689275362
1.0004538689575204
1.0004538689574101
1.0004538689575204
1.0004538689575204
1.0004538689575204
1.0004538689575204
1.0004538689575204
1.0004538689575204
1.0004538689575204
1.0004538689575204
1.0004538689575204
1.0004538689575204
1.0004538689575204
1.0004538689574101
1.0004538689575204
1.0004538689275362
1.0004538689575238
1.0004538638477369
1.0004538689583224
1.000453367010985
1.0004538690833737
1.0004290625955314
1.0004538686196938
1.0000453978687025
1.0000848845017327
1.0000848883688793
1.0000848845017463
1.0000848846394463
1.000084884501756
1.0000848845035484
1.000084884501756
1.0000848845017682
1.000084884501756
1.0000848845017563
1.000084884501756
1.000084884501756
1.000084884501756
1.000084884501756
1.000084884501756
1.000084884501756
1.000084884501756
1.000084884501756
1.000084884501756
1.000084884501756
1.000084884501756
1.0000848845017563
1.000084884501756
1.0000848845017682
1.000084884501756
1.0000848845035484
1.000084884501756
1.0000848846394463
1.0000848845017463
1.0000848883688793
1.0000848845017327
1.0000848110417238
1.0001836829419541
1.0001826915644401
1.000183682977337
1.0001836679258804
1.0001836829767603
1.0001836828594111
1.0001836829767552
1.0001836829762174
1.0001836829767552
1.0001836829767539
1.0001836829767552
1.0001836829767552
1.0001836829767552
1.0001836829767552
1.0001836829767552
1.0001836829767552
1.0001836829767552
1.0001836829767552
1.0001836829767552
1.0001836829767552
1.0001836829767552
1.0001836829767539
1.0001836829767552
1.0001836829762174
1.0001836829767552
1.0001836828594111
1.0001836829767603
1.0001836679258804
1.000183682977337
1.0001826915644401
1.0001836829419541
1.0001584362191025
1.0002958632699932
1.0002958752542241
1.0002958632699908
1.000295863526707
1.0002958632699908
1.0002958632727452
1.0002958632699908
1.0002958632700072
1.0002958632699908
1.0002958632699908
1.0002958632699908
1.0002958632699908
1.0002958632699908
1.0002958632699908
1.0002958632699908
1.0002958632699908
1.0002958632699908
1.0002958632699908
1.0002958632699908
1.0002958632699908
1.0002958632699908
1.0002958632699908
1.0002958632699908
1.0002958632700072
1.0002958632699908
1.0002958632727452
1.0002958632699908
1.000295863526707
1.0002958632699908
1.0002958752542241
1.0002958632699932
1.0002959571135133
1.0005531128490879
1.0005531188628294
1.0005531128493044
1.0005531131229226
1.0005531128493033
1.0005531128530378
1.0005531128493033
1.0005531128493284
1.0005531128493033
1.0005531128493033
1.0005531128493033
1.0005531128493033
1.0005531128493033
1.0005531128493033
1.0005531128493033
1.0005531128493033
1.0005531128493033
1.0005531128493033
1.0005531128493033
1.0005531128493033
1.0005531128493033
1.0005531128493033
1.0005531128493033
1.0005531128493284
1.0005531128493033
1.0005531128530378
1.0005531128493033
1.0005531131229226
1.0005531128493044
1.0005531188628294
1.0005531128490879
1.0005527786369237
1.0010318974816814
1.0010319362252229
1.0010318974816836
1.0010318983017854
1.0010318974816832
1.0010318974904135
1.0010318974816832
1.0010318974817365
1.0010318974816832
1.0010318974816834
1.0010318974816832
1.0010318974816832
1.0010318974816832
1.0010318974816832
1.0010318974816832
1.0010318974816832
1.0010318974816832
1.0010318974816832
1.0010318974816832
1.0010318974816832
1.0010318974816832
1.0010318974816834
1.0010318974816832
1.0010318974817365
1.0010318974816832
1.0010318974904135
1.0010318974816832
1.0010318983017854
1.0010318974816836
1.0010319362252229
1.0010318974816814
1.001032231036755
1.0019261144334901
1.0019261855816775
1.001926114433497
1.0019261159368316
1.0019261144334959
1.0019261144494682
1.0019261144334959
1.0019261144335938
1.0019261144334959
1.0019261144334961
1.0019261144334959
1.0019261144334959
1.0019261144334959
1.0019261144334959
1.0019261144334959
1.0019261144334959
1.0019261144334959
1.0019261144334959
1.0019261144334959
1.0019261144334959
1.0019261144334959
1.0019261144334961
1.0019261144334959
1.0019261144335938
1.0019261144334959
1.0019261144494682
1.0019261144334959
1.0019261159368316
1.001926114433497
1.0019261855816775
1.0019261144334901
1.0019267346633276
1.0035924296338525
1.0035925612675369
1.0035924296338699
1.0035924324054379
1.003592429633867
1.0035924296632288
1.003592429633867
1.0035924296340464
1.003592429633867
1.0035924296338679
1.003592429633867
1.003592429633867
1.003592429633867
1.003592429633867
1.003592429633867
1.003592429633867
1.003592429633867
1.003592429633867
1.003592429633867
1.003592429633867
1.003592429633867
1.0035924296338679
1.003592429633867
1.0035924296340464
1.003592429633867
1.0035924296632288
1.003592429633867
1.0035924324054379
1.0035924296338699
1.0035925612675369
1.0035924296338525
1.0035936025814203
1.0066906473750494
1.0066908904297651
1.0066906473751103
1.0066906524752879
1.0066906473750981
1.0066906474289494
1.0066906473750978
1.006690647375426
1.0066906473750978
1.0066906473750992
1.0066906473750978
1.0066906473750978
1.0066906473750978
1.0066906473750978
1.0066906473750978
1.0066906473750978
1.0066906473750978
1.0066906473750978
1.0066906473750978
1.0066906473750978
1.0066906473750978
1.0066906473750992
1.0066906473750978
1.006690647375426
1.0066906473750978
1.0066906474289494
1.0066906473750981
1.0066906524752879
1.0066906473751103
1.0066908904297651
1.0066906473750494
1.006692850924285
1.0124274940744034
1.0124279407999672
1.0124274940745999
1.0124275033967611
1.0124274940745575
1.0124274941724409
1.0124274940745575
1.0124274940751505
1.0124274940745575
1.0124274940745592
1.0124274940745575
1.0124274940745575
1.0124274940745575
1.0124274940745575
1.0124274940745575
1.0124274940745575
1.0124274940745575
1.0124274940745575
1.0124274940745575
1.0124274940745575
1.0124274940745575
1.0124274940745592
1.0124274940745575
1.0124274940751505
1.0124274940745575
1.0124274941724409
1.0124274940745575
1.0124275033967611
1.0124274940745999
1.0124279407999672
1.0124274940744034
1.0124316508531859
1.0229694669843499
1.0229702798073816
1.0229694669849514
1.022969483782735
1.0229694669848124
1.0229694671594562
1.0229694669848108
1.0229694669858602
1.0229694669848108
1.0229694669848148
1.0229694669848108
1.0229694669848108
1.0229694669848108
1.0229694669848108
1.0229694669848108
1.0229694669848108
1.0229694669848108
1.0229694669848108
1.0229694669848108
1.0229694669848108
1.0229694669848108
1.0229694669848148
1.0229694669848108
1.0229694669858602
1.0229694669848108
1.0229694671594562
1.0229694669848124
1.022969483782735
1.0229694669849514
1.0229702798073816
1.0229694669843499
1.0229773699100257
1.0420725100091148
1.042073962592877
1.042072510010823
1.0420725395186456
1.042072510010384
1.0420725103118276
1.0420725100103809
1.0420725100121597
1.0420725100103807
1.0420725100103871
1.0420725100103807
1.0420725100103811
1.0420725100103807
1.0420725100103807
1.0420725100103807
1.0420725100103807
1.0420725100103807
1.0420725100103807
1.0420725100103807
1.0420725100103811
1.0420725100103807
1.0420725100103871
1.0420725100103807
1.0420725100121597
1.0420725100103809
1.0420725103118276
1.042072510010384
1.0420725395186456
1.042072510010823
1.042073962592877
1.0420725100091148
1.0420877279156189
1.075828425814678
1.0758309457217823
1.0758284258190063
1.0758284755152423
1.0758284258177186
1.075828426310153
1.07582842581771
1.0758284258205251
1.07582842581771
1.0758284258177202
1.07582842581771
1.07582842581771
1.07582842581771
1.07582842581771
1.07582842581771
1.07582842581771
1.07582842581771
1.07582842581771
1.07582842581771
1.07582842581771
1.07582842581771
1.0758284258177202
1.07582842581771
1.0758284258205251
1.07582842581771
1.075828426310153
1.0758284258177186
1.0758284755152423
1.0758284258190063
1.0758309457217823
1.075828425814678
1.0758581800212434
1.1329057705610701
1.1329099400327667
1.1329057705705587
1.132905848906802
1.132905770567185
1.1329057713054387
1.1329057705671635
1.1329057705711747
1.1329057705671635
1.1329057705671775
1.1329057705671635
1.1329057705671635
1.1329057705671635
1.1329057705671635
1.1329057705671635
1.1329057705671635
1.1329057705671635
1.1329057705671635
1.1329057705671635
1.1329057705671635
1.1329057705671635
1.1329057705671775
1.1329057705671635
1.1329057705711747
1.1329057705671635
1.1329057713054387
1.132905770567185
1.132905848906802
1.1329057705705587
1.1329099400327667
1.1329057705610701
1.1329642401978293
1.2225889102883949
1.2225953164745815
1.2225889103058407
1.2225890222171629
1.2225889102984291
1.2225889112767088
1.2225889102983865
1.2225889103033105
1.2225889102983865
1.2225889102984024
1.2225889102983865
1.2225889102983865
1.2225889102983865
1.2225889102983865
1.2225889102983865
1.2225889102983865
1.2225889102983865
1.2225889102983865
1.2225889102983865
1.2225889102983865
1.2225889102983865
1.2225889102984024
1.2225889102983865
1.2225889103033105
1.2225889102983865
1.2225889112767088
1.2225889102984291
1.2225890222171629
1.2225889103058407
1.2225953164745815
1.2225889102883949
1.2227001388253087
1.3484535344474642
1.3484623376085505
1.3484535344733617
1.3484536742582567
1.3484535344607165
1.3484535355685305
1.3484535344606503
1.3484535344656996
1.3484535344606503
1.3484535344606645
1.3484535344606503
1.3484535344606503
1.3484535344606503
1.3484535344606503
1.3484535344606503
1.3484535344606503
1.3484535344606503
1.3484535344606503
1.3484535344606503
1.3484535344606503
1.3484535344606503
1.3484535344606645
1.3484535344606503
1.3484535344656996
1.3484535344606503
1.3484535355685305
1.3484535344607165
1.3484536742582567
1.3484535344733617
1.3484623376085505
1.3484535344474642
1.3486451353339457
1.4997217668796248
1.4997321612593446
1.4997217669092824
1.4997219154422863
1.4997217668936262
1.4997217679506776
1.4997217668935547
1.4997217668978777
1.4997217668935547
1.4997217668935661
1.4997217668935547
1.4997217668935547
1.4997217668935547
1.4997217668935547
1.4997217668935547
1.4997217668935547
1.4997217668935547
1.4997217668935547
1.4997217668935547
1.4997217668935547
1.4997217668935547
1.4997217668935661
1.4997217668935547
1.4997217668978777
1.4997217668935547
1.4997217679506776
1.4997217668936262
1.4997219154422863
1.4997217669092824
1.4997321612593446
1.4997217668796248
1.5
1.6510289585463243
1.6510392456671643
1.6510289585721547
1.6510290919333572
1.6510289585584708
1.6510289594183607
1.651028958558415
1.6510289585615991
1.6510289585584148
1.6510289585584228
1.6510289585584148
1.6510289585584148
1.6510289585584148
1.6510289585584148
1.6510289585584148
1.6510289585584148
1.6510289585584148
1.6510289585584148
1.6510289585584148
1.6510289585584148
1.6510289585584148
1.6510289585584228
1.6510289585584148
1.6510289585615991
1.651028958558415
1.6510289594183607
1.6510289585584708
1.6510290919333572
1.6510289585721547
1.6510392456671643
1.6510289585463243
1.6513548646660543
1.7769930444873581
1.7770016009605787
1.7769930445050355
1.77699314725811
1.7769930444963975
1.7769930451098908
1.7769930444963653
1.7769930444984694
1.7769930444963651
1.7769930444963693
1.7769930444963651
1.7769930444963651
1.7769930444963651
1.7769930444963651
1.7769930444963651
1.7769930444963651
1.7769930444963651
1.7769930444963651
1.7769930444963651
1.7769930444963651
1.7769930444963651
1.7769930444963693
1.7769930444963651
1.7769930444984694
1.7769930444963653
1.7769930451098908
1.7769930444963975
1.77699314725811
1.7769930445050355
1.7770016009605787
1.7769930444873581
1.7772998611746911
1.8667965017267094
1.8668026452324742
1.8667965017366586
1.8667965717041044
1.8667965017324828
1.8667965021288124
1.8667965017324686
1.8667965017337582
1.8667965017324686
1.8667965017324706
1.8667965017324686
1.8667965017324686
1.8667965017324686
1.8667965017324686
1.8667965017324686
1.8667965017324686
1.8667965017324686
1.8667965017324686
1.8667965017324686
1.8667965017324686
1.8667965017324686
1.8667965017324706
1.8667965017324686
1.8667965017337582
1.8667965017324686
1.8667965021288124
1.8667965017324828
1.8667965717041044
1.8667965017366586
1.8668026452324742
1.8667965017267094
1.8670357598021707
1.9239798527197731
1.9239838056920344
1.9239798527245049
1.9239798962532275
1.9239798527228456
1.9239798529614349
1.9239798527228391
1.9239798527235905
1.9239798527228391
1.9239798527228411
1.9239798527228391
1.9239798527228391
1.9239798527228391
1.9239798527228391
1.9239798527228391
1.9239798527228391
1.9239798527228391
1.9239798527228391
1.9239798527228391
1.9239798527228391
1.9239798527228391
1.9239798527228411
1.9239798527228391
1.9239798527235905
1.9239798527228391
1.9239798529614349
1.9239798527228456
1.9239798962532275
1.9239798527245049
1.9239838056920344
1.9239798527197731
1.9241418199787566
1.9578125959571187
1.9578149583215425
1.9578125959590555
1.9578126214508607
1.9578125959584771
1.9578125960955151
1.9578125959584756
1.9578125959588988
1.9578125959584756
1.957812595958476
1.9578125959584756
1.9578125959584756
1.9578125959584756
1.9578125959584756
1.9578125959584756
1.9578125959584756
1.9578125959584756
1.9578125959584756
1.9578125959584756
1.9578125959584756
1.9578125959584756
1.957812595958476
1.9578125959584756
1.9578125959588988
1.9578125959584756
1.9578125960955151
1.9578125959584771
1.9578126214508607
1.9578125959590555
1.9578149583215425
1.9578125959571187
1.9579122720843811
1.9769648317961779
1.976966180089323
1.9769648317968789
1.9769648461763965
1.9769648317966928
1.9769648318731468
1.9769648317966926
1.9769648317969262
1.9769648317966926
1.9769648317966928
1.9769648317966926
1.9769648317966926
1.9769648317966926
1.9769648317966926
1.9769648317966926
1.9769648317966926
1.9769648317966926
1.9769648317966926
1.9769648317966926
1.9769648317966926
1.9769648317966926
1.9769648317966928
1.9769648317966926
1.9769648317969262
1.9769648317966926
1.9769648318731468
1.9769648317966928
1.9769648461763965
1.9769648317968789
1.976966180089323
1.9769648317961779
1.9770226300899743
1.987535995187016
1.9875367444082055
1.9875359951872491
1.9875360031253784
1.9875359951871923
1.9875359952291425
1.9875359951871923
1.9875359951873199
1.9875359951871923
1.9875359951871923
1.9875359951871923
1.9875359951871923
1.9875359951871923
1.9875359951871923
1.9875359951871923
1.9875359951871923
1.9875359951871923
1.9875359951871923
1.9875359951871923
1.9875359951871923
1.9875359951871923
1.9875359951871923
1.9875359951871923
1.9875359951873199
1.9875359951871923
1.9875359952291425
1.9875359951871923
1.9875360031253784
1.9875359951872491
1.9875367444082055
1.987535995187016
1.9875683491468141
1.993289400467628
1.9932898109632018
1.9932894004677011
1.9932894048017495
1.9932894004676838
1.9932894004905151
1.9932894004676835
1.9932894004677526
1.9932894004676835
1.993289400467684
1.9932894004676835
1.9932894004676835
1.9932894004676835
1.9932894004676835
1.9932894004676835
1.9932894004676835
1.9932894004676835
1.9932894004676835
1.9932894004676835
1.9932894004676835
1.9932894004676835
1.993289400467684
1.9932894004676835
1.9932894004677526
1.9932894004676835
1.9932894004905151
1.9932894004676838
1.9932894048017495
1.9932894004677011
1.9932898109632018
1.993289400467628
1.993307149075715
1.9963967691811235
1.9963969928575656
1.9963967691811451
1.9963967715387094
1.9963967691811402
1.9963967691935436
1.9963967691811402
1.9963967691811773
1.9963967691811402
1.9963967691811402
1.9963967691811402
1.9963967691811402
1.9963967691811402
1.9963967691811402
1.9963967691811402
1.9963967691811402
1.9963967691811402
1.9963967691811402
1.9963967691811402
1.9963967691811402
1.9963967691811402
1.9963967691811402
1.9963967691811402
1.9963967691811773
1.9963967691811402
1.9963967691935436
1.9963967691811402
1.9963967715387094
1.9963967691811451
1.9963969928575656
1.9963967691811235
1.9964063974185799
1.9980682191045662
1.9980683388507374
1.9980682191045889
1.9980682203761908
1.9980682191045864
1.9980682191113039
1.9980682191045864
1.9980682191046075
1.9980682191045864
1.9980682191045864
1.9980682191045864
1.9980682191045864
1.9980682191045864
1.9980682191045864
1.9980682191045864
1.9980682191045864
1.9980682191045864
1.9980682191045864
1.9980682191045864
1.9980682191045864
1.9980682191045864
1.9980682191045864
1.9980682191045864
1.9980682191046075
1.9980682191045864
1.9980682191113039
1.9980682191045864
1.9980682203761908
1.9980682191045889
1.9980683388507374
1.9980682191045662
1.9980732653366724
1.9989649778657881
1.9989650450675363
1.9989649778657899
1.9989649785739383
1.998964977865789
1.9989649778695164
1.998964977865789
1.9989649778658003
1.998964977865789
1.9989649778657892
1.998964977865789
1.998964977865789
1.998964977865789
1.998964977865789
1.998964977865789
1.998964977865789
1.998964977865789
1.998964977865789
1.998964977865789
1.998964977865789
1.998964977865789
1.9989649778657892
1.998964977865789
1.9989649778658003
1.998964977865789
1.9989649778695164
1.998964977865789
1.9989649785739383
1.9989649778657899
1.9989650450675363
1.9989649778657881
1.9989677689632452
1.9994590675821799
1.9994588205858812
1.9994590675868578
1.9994590657058846
1.9994590675868145
1.9994590675796113
1.9994590675868142
1.999459067586798
1.9994590675868142
1.9994590675868142
1.9994590675868142
1.9994590675868142
1.9994590675868142
1.9994590675868142
1.9994590675868142
1.9994590675868142
1.9994590675868142
1.9994590675868142
1.9994590675868142
1.9994590675868142
1.9994590675868142
1.9994590675868142
1.9994590675868142
1.999459067586798
1.9994590675868142
1.9994590675796113
1.9994590675868145
1.9994590657058846
1.9994590675868578
1.9994588205858812
1.9994590675821799
1.9994472213630763
1.9997031885277441
1.9997032128393755
1.9997031885277423
1.9997031887885801
1.9997031885277441
1.9997031885291314
1.9997031885277441
1.9997031885277481
1.9997031885277441
1.9997031885277441
1.9997031885277441
1.9997031885277441
1.9997031885277441
1.9997031885277441
1.9997031885277441
1.9997031885277441
1.9997031885277441
1.9997031885277441
1.9997031885277441
1.9997031885277441
1.9997031885277441
1.9997031885277441
1.9997031885277441
1.9997031885277481
1.9997031885277441
1.9997031885291314
1.9997031885277441
1.9997031887885801
1.9997031885277423
1.9997032128393755
1.9997031885277441
1.999704042886487
2.0002968826990668
2.0002836965526631
2.0002968827294536
2.0002967401569625
2.0002968827111784
2.0002968819494344
2.0002968827111167
2.0002968827087853
2.0002968827111167
2.0002968827111123
2.0002968827111167
2.0002968827111167
2.0002968827111167
2.0002968827111167
2.0002968827111167
2.0002968827111167
2.0002968827111167
2.0002968827111167
2.0002968827111167
2.0002968827111167
2.0002968827111167
2.0002968827111123
2.0002968827111167
2.0002968827087853
2.0002968827111167
2.0002968819494344
2.0002968827111784
2.0002967401569625
2.0002968827294536
2.0002836965526631
2.0002968826990668
1.9998415637808975
1.9999151889582765
1.9999151889582765
1.9999151889582765
1.9999151889582765
1.9999151889582765
1.9999151889582765
1.9999151889582765
1.9999151889582765
1.9999151889582765
1.9999151889582765
1.9999151889582765
1.9999151889582765
1.9999151889582765
1.9999151889582765
1.9999151889582765
1.9999151889582765
1.9999151889582765
1.9999151889582765
1.9999151889582765
1.9999151889582765
1.9999151889582765
1.9999151889582765
1.9999151889582765
1.9999151889582765
1.9999151889582765
1.9999151889582765
1.9999151889582765
1.9999151889582765
1.9999151889582765
1.9999151889582765
1.9999151889582765
1.9999151889582765
1.0016050954663751
1.0015494424815465
1.0016050967203987
1.0016037978229055
1.0016050959841889
1.0016050808914405
1.0016050959784242
1.0016050958776865
1.0016050959783982
1.0016050959779768
1.001605095978398
1.0016050959783969
1.001605095978398
1.001605095978398
1.001605095978398
1.001605095978398
1.001605095978398
1.001605095978398
1.001605095978398
1.0016050959783969
1.001605095978398
1.0016050959779768
1.0016050959783982
1.0016050958776865
1.0016050959784242
1.0016050808914405
1.0016050959841889
1.0016037978229055
1.0016050967203987
1.0015494424815465
1.0016050954663751
1.0000453978687025
1.0000855585362731
1.0000855264702277
1.0000855585364532
1.0000855578744285
1.0000855585363699
1.0000855585292643
1.0000855585363684
1.000085558536324
1.0000855585363684
1.0000855585363684
1.0000855585363684
1.0000855585363684
1.0000855585363684
1.0000855585363684
1.0000855585363684
1.0000855585363684
1.0000855585363684
1.0000855585363684
1.0000855585363684
1.0000855585363684
1.0000855585363684
1.0000855585363684
1.0000855585363684
1.000085558536324
1.0000855585363684
1.0000855585292643
1.0000855585363699
1.0000855578744285
1.0000855585364532
1.0000855264702277
1.0000855585362731
1.0000848110417238
1.0002150743486995
1.0002125036326124
1.0002150745438447
1.0002150298907282
1.0002150745395999
1.0002150741422311
1.0002150745395544
1.0002150745374734
1.0002150745395542
1.0002150745395473
1.0002150745395542
1.0002150745395539
1.0002150745395542
1.0002150745395542
1.0002150745395542
1.0002150745395542
1.0002150745395542
1.0002150745395542
1.0002150745395542
1.0002150745395539
1.0002150745395542
1.0002150745395473
1.0002150745395542
1.0002150745374734
1.0002150745395544
1.0002150741422311
1.0002150745395999
1.0002150298907282
1.0002150745438447
1.0002125036326124
1.0002150743486995
1.0001584362191025
1.0002954803814921
1.0002954959321333
1.0002954803815201
1.000295480717551
1.0002954803815194
1.0002954803851221
1.0002954803815194
1.0002954803815411
1.0002954803815194
1.0002954803815194
1.0002954803815194
1.0002954803815194
1.0002954803815194
1.0002954803815194
1.0002954803815194
1.0002954803815194
1.0002954803815194
1.0002954803815194
1.0002954803815194
1.0002954803815194
1.0002954803815194
1.0002954803815194
1.0002954803815194
1.0002954803815411
1.0002954803815194
1.0002954803851221
1.0002954803815194
1.000295480717551
1.0002954803815201
1.0002954959321333
1.0002954803814921
1.0002959571135133
1.0005531415014974
1.0005531284992089
1.0005531415029829
1.0005531415807738
1.0005531415029705
1.0005531415059503
1.0005531415029703
1.0005531415029965
1.0005531415029703
1.0005531415029705
1.0005531415029703
1.0005531415029703
1.0005531415029703
1.0005531415029703
1.0005531415029703
1.0005531415029703
1.0005531415029703
1.0005531415029703
1.0005531415029703
1.0005531415029703
1.0005531415029703
1.0005531415029705
1.0005531415029703
1.0005531415029965
1.0005531415029703
1.0005531415059503
1.0005531415029705
1.0005531415807738
1.0005531415029829
1.0005531284992089
1.0005531415014974
1.0005527786369237
1.0010304301088571
1.0010304898688995
1.0010304301088606
1.001030431372687
1.0010304301088597
1.0010304301222526
1.0010304301088597
1.0010304301089419
1.0010304301088597
1.0010304301088599
1.0010304301088597
1.0010304301088597
1.0010304301088597
1.0010304301088597
1.0010304301088597
1.0010304301088597
1.0010304301088597
1.0010304301088597
1.0010304301088597
1.0010304301088597
1.0010304301088597
1.0010304301088599
1.0010304301088597
1.0010304301089419
1.0010304301088597
1.0010304301222526
1.0010304301088597
1.001030431372687
1.0010304301088606
1.0010304898688995
1.0010304301088571
1.001032231036755
1.0019233880607734
1.0019234990712269
1.0019233880607921
1.0019233904123104
1.0019233880607896
1.0019233880857286
1.0019233880607896
1.0019233880609413
1.0019233880607896
1.0019233880607901
1.0019233880607896
1.0019233880607896
1.0019233880607896
1.0019233880607896
1.0019233880607896
1.0019233880607896
1.0019233880607896
1.0019233880607896
1.0019233880607896
1.0019233880607896
1.0019233880607896
1.0019233880607901
1.0019233880607896
1.0019233880609413
1.0019233880607896
1.0019233880857286
1.0019233880607896
1.0019233904123104
1.0019233880607921
1.0019234990712269
1.0019233880607734
1.0019267346633276
1.0035873376163027
1.0035875447258877
1.0035873376163429
1.0035873419911552
1.0035873376163338
1.0035873376626492
1.0035873376163336
1.0035873376166156
1.0035873376163336
1.0035873376163349
1.0035873376163336
1.0035873376163336
1.0035873376163336
1.0035873376163336
1.0035873376163336
1.0035873376163336
1.0035873376163336
1.0035873376163336
1.0035873376163336
1.0035873376163336
1.0035873376163336
1.0035873376163349
1.0035873376163336
1.0035873376166156
1.0035873376163336
1.0035873376626492
1.0035873376163338
1.0035873419911552
1.0035873376163429
1.0035875447258877
1.0035873376163027
1.0035936025814203
1.0066812031472727
1.0066815864932093
1.0066812031474046
1.0066812112258683
1.0066812031473726
1.0066812032326933
1.0066812031473722
1.0066812031478907
1.0066812031473722
1.0066812031473746
1.0066812031473722
1.0066812031473722
1.0066812031473722
1.0066812031473722
1.0066812031473722
1.0066812031473722
1.0066812031473722
1.0066812031473722
1.0066812031473722
1.0066812031473722
1.0066812031473722
1.0066812031473746
1.0066812031473722
1.0066812031478907
1.0066812031473722
1.0066812032326933
1.0066812031473726
1.0066812112258683
1.0066812031474046
1.0066815864932093
1.0066812031472727
1.006692850924285
1.0124100824737334
1.0124107866230747
1.0124100824741518
1.0124100972443555
1.0124100824740434
1.0124100826292923
1.0124100824740425
1.0124100824749829
1.0124100824740425
1.0124100824740463
1.0124100824740425
1.0124100824740425
1.0124100824740425
1.0124100824740425
1.0124100824740425
1.0124100824740425
1.0124100824740425
1.0124100824740425
1.0124100824740425
1.0124100824740425
1.0124100824740425
1.0124100824740463
1.0124100824740425
1.0124100824749829
1.0124100824740425
1.0124100826292923
1.0124100824740434
1.0124100972443555
1.0124100824741518
1.0124107866230747
1.0124100824737334
1.0124316508531859
1.0229377149442069
1.0229389912822033
1.0229377149454493
1.0229377414865641
1.0229377149450951
1.0229377152215726
1.0229377149450927
1.0229377149467511
1.0229377149450927
1.0229377149450991
1.0229377149450927
1.0229377149450927
1.0229377149450927
1.0229377149450927
1.0229377149450927
1.0229377149450927
1.0229377149450927
1.0229377149450927
1.0229377149450927
1.0229377149450927
1.0229377149450927
1.0229377149450991
1.0229377149450927
1.0229377149467511
1.0229377149450927
1.0229377152215726
1.0229377149450951
1.0229377414865641
1.0229377149454493
1.0229389912822033
1.0229377149442069
1.0229773699100257
1.0420157200179607
1.0420179822129019
1.0420157200213129
1.0420157663274781
1.042015720020216
1.0420157204947644
1.0420157200202094
1.0420157200230091
1.0420157200202089
1.0420157200202189
1.0420157200202089
1.0420157200202094
1.0420157200202089
1.0420157200202089
1.0420157200202089
1.0420157200202089
1.0420157200202089
1.0420157200202089
1.0420157200202089
1.0420157200202094
1.0420157200202089
1.0420157200202189
1.0420157200202089
1.0420157200230091
1.0420157200202094
1.0420157204947644
1.042015720020216
1.0420157663274781
1.0420157200213129
1.0420179822129019
1.0420157200179607
1.0420877279156189
1.0757302313486394
1.0757340969050315
1.075730231356542
1.0757303083219982
1.0757302313534167
1.0757302321198026
1.0757302313533972
1.0757302313577874
1.0757302313533972
1.0757302313534127
1.0757302313533972
1.0757302313533972
1.0757302313533972
1.0757302313533972
1.0757302313533972
1.0757302313533972
1.0757302313533972
1.0757302313533972
1.0757302313533972
1.0757302313533972
1.0757302313533972
1.0757302313534127
1.0757302313533972
1.0757302313577874
1.0757302313533972
1.0757302321198026
1.0757302313534167
1.0757303083219982
1.075730231356542
1.0757340969050315
1.0757302313486394
1.0758581800212434
1.1327454014083751
1.1327516352455216
1.1327454014241829
1.1327455199354322
1.1327454014164018
1.1327454025412227
1.1327454014163534
1.1327454014224896
1.1327454014163534
1.1327454014163743
1.1327454014163534
1.1327454014163534
1.1327454014163534
1.1327454014163534
1.1327454014163534
1.1327454014163534
1.1327454014163534
1.1327454014163534
1.1327454014163534
1.1327454014163534
1.1327454014163534
1.1327454014163743
1.1327454014163534
1.1327454014224896
1.1327454014163534
1.1327454025412227
1.1327454014164018
1.1327455199354322
1.1327454014241829
1.1327516352455216
1.1327454014083751
1.1329642401978293
1.2223499430199423
1.2223591383683559
1.2223499430463534
1.2223501059013901
1.2223499430305933
1.2223499444674353
1.2223499430305027
1.2223499430377824
1.2223499430305027
1.2223499430305258
1.2223499430305027
1.2223499430305027
1.2223499430305027
1.2223499430305027
1.2223499430305027
1.2223499430305027
1.2223499430305027
1.2223499430305027
1.2223499430305027
1.2223499430305027
1.2223499430305027
1.2223499430305258
1.2223499430305027
1.2223499430377824
1.2223499430305027
1.2223499444674353
1.2223499430305933
1.2223501059013901
1.2223499430463534
1.2223591383683559
1.2223499430199423
1.2227001388253087
1.3481425654705179
1.3481544821757243
1.3481425655062691
1.3481427574385061
1.34814256548232
1.3481425670191005
1.3481425654821952
1.3481425654892556
1.3481425654821952
1.3481425654822157
1.3481425654821952
1.3481425654821952
1.3481425654821952
1.3481425654821952
1.3481425654821952
1.3481425654821952
1.3481425654821952
1.3481425654821952
1.3481425654821952
1.3481425654821952
1.3481425654821952
1.3481425654822157
1.3481425654821952
1.3481425654892556
1.3481425654821952
1.3481425670191005
1.34814256548232
1.3481427574385061
1.3481425655062691
1.3481544821757243
1.3481425654705179
1.3486451353339457
1.4993823504227493
1.4993954394216071
1.4993823504602535
1.4993825398609941
1.4993823504344752
1.4993823517948257
1.499382350434356
1.4993823504399586
1.4993823504343555
1.4993823504343704
1.4993823504343555
1.4993823504343555
1.4993823504343555
1.4993823504343555
1.4993823504343555
1.4993823504343555
1.4993823504343555
1.4993823504343555
1.4993823504343555
1.4993823504343555
1.4993823504343555
1.4993823504343704
1.4993823504343555
1.4993823504399586
1.499382350434356
1.4993823517948257
1.4993823504344752
1.4993825398609941
1.4993823504602535
1.4993954394216071
1.4993823504227493
1.5
1.6507238516570588
1.6507358889083956
1.650723851687506
1.6507240092835265
1.6507238516678961
1.6507238526910915
1.6507238516678142
1.6507238516716218
1.6507238516678142