# vtk DataFile Version 3.0
Euler density step 140
ASCII
DATASET STRUCTURED_POINTS
DIMENSIONS 32 32 32
ORIGIN 0 0 0
SPACING 0.3125 0.3125 0.3125
POINT_DATA 32768
SCALARS density double 1
LOOKUP_TABLE default
1.0019756141072491
1.0014286765277767
1.0019758311246718
1.0019100663115201
1.0019757736672363
1.0019714208505561
1.0019757703651224
1.0019755938249228
1.0019757702849816
1.0019757655351174
1.001975770283799
1.0019757701940377
1.0019757702837881
1.0019757702825449
1.0019757702837877
1.0019757702837626
1.0019757702837877
1.0019757702825449
1.0019757702837881
1.0019757701940377
1.001975770283799
1.0019757655351174
1.0019757702849816
1.0019755938249228
1.0019757703651224
1.0019714208505561
1.0019757736672363
1.0019100663115201
1.0019758311246718
1.0014286765277767
1.0019756141072491
1.0000453978687025
1.0000865356750968
1.0000865001774628
1.0000865356411062
1.0000865593079868
1.0000865356515856
1.0000865386078259
1.000086535652748
1.0000865358183391
1.0000865356527946
1.000086535658312
1.000086535652795
1.0000865356529176
1.000086535652795
1.0000865356527979
1.000086535652795
1.000086535652795
1.000086535652795
1.0000865356527979
1.000086535652795
1.0000865356529176
1.000086535652795
1.000086535658312
1.0000865356527946
1.0000865358183391
1.000086535652748
1.0000865386078259
1.0000865356515856
1.0000865593079868
1.0000865356411062
1.0000865001774628
1.0000865356750968
1.0000848110417238
1.0007648997824274
1.0006386981350803
1.0007649297421193
1.0007526600440311
1.0007649278430288
1.0007642644522259
1.0007649277110848
1.0007649053163992
1.0007649277079893
1.0007649271981183
1.0007649277079507
1.0007649276996882
1.0007649277079502
1.0007649277078507
1.0007649277079502
1.000764927707948
1.0007649277079502
1.0007649277078507
1.0007649277079502
1.0007649276996882
1.0007649277079507
1.0007649271981183
1.0007649277079893
1.0007649053163992
1.0007649277110848
1.0007642644522259
1.0007649278430288
1.0007526600440311
1.0007649297421193
1.0006386981350803
1.0007648997824274
1.0001584362191025
1.0002952857540075
1.0002956333887081
1.0002952857519072
1.0002953315743965
1.0002952857522234
1.0002952889568812
1.0002952857522815
1.0002952858882552
1.0002952857522831
1.0002952857561116
1.0002952857522831
1.0002952857523599
1.0002952857522831
1.0002952857522849
1.0002952857522831
1.0002952857522831
1.0002952857522831
1.0002952857522849
1.0002952857522831
1.0002952857523599
1.0002952857522831
1.0002952857561116
1.0002952857522831
1.0002952858882552
1.0002952857522815
1.0002952889568812
1.0002952857522234
1.0002953315743965
1.0002952857519072
1.0002956333887081
1.0002952857540075
1.0002959571135133
1.0006247751788915
1.0006128132557597
1.0006247764430376
1.0006238572236372
1.0006247764262175
1.000624736992199
1.0006247764240555
1.0006247753693034
1.0006247764240073
1.0006247764052596
1.0006247764240073
1.0006247764237797
1.0006247764240073
1.0006247764240057
1.0006247764240073
1.0006247764240073
1.0006247764240073
1.0006247764240057
1.0006247764240073
1.0006247764237797
1.0006247764240073
1.0006247764052596
1.0006247764240073
1.0006247753693034
1.0006247764240555
1.000624736992199
1.0006247764262175
1.0006238572236372
1.0006247764430376
1.0006128132557597
1.0006247751788915
1.0005527786369237
1.0010289413826496
1.0010301327145283
1.0010289413838913
1.001029081005639
1.0010289413836877
1.0010289505927779
1.0010289413836748
1.0010289417635811
1.0010289413836744
1.0010289413942328
1.0010289413836744
1.0010289413838824
1.0010289413836744
1.001028941383677
1.0010289413836744
1.0010289413836744
1.0010289413836744
1.001028941383677
1.0010289413836744
1.0010289413838824
1.0010289413836744
1.0010289413942328
1.0010289413836744
1.0010289417635811
1.0010289413836748
1.0010289505927779
1.0010289413836877
1.001029081005639
1.0010289413838913
1.0010301327145283
1.0010289413826496
1.001032231036755
1.0019254829082724
1.0019269836980078
1.0019254829416691
1.0019256935030518
1.0019254829412139
1.0019254980618659
1.001925482941149
1.0019254835921905
1.0019254829411472
1.0019254829596571
1.0019254829411472
1.0019254829415176
1.0019254829411472
1.0019254829411528
1.0019254829411472
1.0019254829411475
1.0019254829411472
1.0019254829411528
1.0019254829411472
1.0019254829415176
1.0019254829411472
1.0019254829596571
1.0019254829411472
1.0019254835921905
1.001925482941149
1.0019254980618659
1.0019254829412139
1.0019256935030518
1.0019254829416691
1.0019269836980078
1.0019254829082724
1.0019267346633276
1.0035823964971753
1.0035864145045483
1.003582396514882
1.0035828650902789
1.0035823965124491
1.003582427287113
1.0035823965122752
1.0035823977767067
1.0035823965122694
1.0035823965472799
1.0035823965122694
1.0035823965129591
1.0035823965122694
1.0035823965122803
1.0035823965122694
1.0035823965122697
1.0035823965122694
1.0035823965122803
1.0035823965122694
1.0035823965129591
1.0035823965122694
1.0035823965472799
1.0035823965122694
1.0035823977767067
1.0035823965122752
1.003582427287113
1.0035823965124491
1.0035828650902789
1.003582396514882
1.0035864145045483
1.0035823964971753
1.0035936025814203
1.0066726510558948
1.006679954326517
1.0066726511128807
1.0066735031675618
1.0066726511046802
1.0066727070090358
1.0066726511041038
1.0066726533968302
1.0066726511040878
1.0066726511674231
1.0066726511040875
1.0066726511053314
1.0066726511040875
1.0066726511041051
1.0066726511040875
1.0066726511040878
1.0066726511040875
1.0066726511041051
1.0066726511040875
1.0066726511053314
1.0066726511040875
1.0066726511674231
1.0066726511040878
1.0066726533968302
1.0066726511041038
1.0066727070090358
1.0066726511046802
1.0066735031675618
1.0066726511128807
1.006679954326517
1.0066726510558948
1.006692850924285
1.0123950027252122
1.0124081995911252
1.0123950028991613
1.0123965367067993
1.0123950028718844
1.0123951031378144
1.0123950028700208
1.0123950069658543
1.0123950028699662
1.0123950029826285
1.0123950028699649
1.0123950028721678
1.0123950028699649
1.0123950028699973
1.0123950028699649
1.0123950028699658
1.0123950028699649
1.0123950028699973
1.0123950028699649
1.0123950028721678
1.0123950028699649
1.0123950029826285
1.0123950028699662
1.0123950069658543
1.0123950028700208
1.0123951031378144
1.0123950028718844
1.0123965367067993
1.0123950028991613
1.0124081995911252
1.0123950027252122
1.0124316508531859
1.0229124207900737
1.0229357681990694
1.0229124212969167
1.0229151226466486
1.0229124212088212
1.0229125968007451
1.0229124212029879
1.0229124283277975
1.0229124212028218
1.022912421397336
1.0229124212028193
1.0229124212065914
1.0229124212028189
1.0229124212028728
1.0229124212028189
1.02291242120282
1.0229124212028189
1.0229124212028728
1.0229124212028189
1.0229124212065914
1.0229124212028193
1.022912421397336
1.0229124212028218
1.0229124283277975
1.0229124212029879
1.0229125968007451
1.0229124212088212
1.0229151226466486
1.0229124212969167
1.0229357681990694
1.0229124207900737
1.0229773699100257
1.0419738676060779
1.0420141914474947
1.0419738689847291
1.0419784919899608
1.0419738687116913
1.0419741659404347
1.0419738686943811
1.0419738806036196
1.0419738686938973
1.0419738690145584
1.0419738686938878
1.0419738687000148
1.0419738686938878
1.0419738686939752
1.0419738686938878
1.0419738686938893
1.0419738686938878
1.0419738686939752
1.0419738686938878
1.0419738687000148
1.0419738686938878
1.0419738690145584
1.0419738686938973
1.0419738806036196
1.0419738686943811
1.0419741659404347
1.0419738687116913
1.0419784919899608
1.0419738689847291
1.0420141914474947
1.0419738676060779
1.0420877279156189
1.07565920873257
1.0757267497225229
1.0756592121663124
1.0756668269611964
1.0756592113686501
1.0756596913266376
1.0756592113208607
1.0756592301224401
1.0756592113195649
1.0756592118134978
1.07565921131954
1.0756592113287347
1.07565921131954
1.075659211319667
1.07565921131954
1.0756592113195429
1.07565921131954
1.075659211319667
1.07565921131954
1.0756592113287347
1.07565921131954
1.0756592118134978
1.0756592113195649
1.0756592301224401
1.0756592113208607
1.0756596913266376
1.0756592113686501
1.0756668269611964
1.0756592121663124
1.0757267497225229
1.07565920873257
1.0758581800212434
1.132615063024075
1.1327239091151209
1.132615070644281
1.1326270099704863
1.132615068500836
1.1326157963375239
1.1326150683813456
1.1326150958278121
1.1326150683782423
1.1326150690699543
1.1326150683781886
1.1326150683905079
1.1326150683781877
1.1326150683783491
1.1326150683781877
1.132615068378191
1.1326150683781877
1.1326150683783491
1.1326150683781877
1.1326150683905079
1.1326150683781886
1.1326150690699543
1.1326150683782423
1.1326150958278121
1.1326150683813456
1.1326157963375239
1.132615068500836
1.1326270099704863
1.132615070644281
1.1327239091151209
1.132615063024075
1.1329642401978293
1.2220895996767063
1.22225648640541
1.2220896142573052
1.2221071743140242
1.222089609140701
1.2220906249992001
1.2220896088803559
1.2220896449630412
1.2220896088740119
1.2220896097262637
1.2220896088739057
1.222089608888085
1.2220896088739051
1.2220896088740782
1.2220896088739051
1.2220896088739079
1.2220896088739051
1.2220896088740782
1.2220896088739051
1.222089608888085
1.2220896088739057
1.2220896097262637
1.2220896088740119
1.2220896449630412
1.2220896088803559
1.2220906249992001
1.222089609140701
1.2221071743140242
1.2220896142573052
1.22225648640541
1.2220895996767063
1.2227001388253087
1.3476219095877586
1.3478602129666863
1.3476219329784433
1.3476455514169579
1.3476219227902668
1.3476231907362306
1.3476219223283092
1.3476219637574887
1.3476219223180395
1.3476219232134394
1.3476219223178831
1.3476219223314692
1.347621922317882
1.3476219223180339
1.347621922317882
1.347621922317884
1.347621922317882
1.3476219223180339
1.347621922317882
1.3476219223314692
1.3476219223178831
1.3476219232134394
1.3476219223180395
1.3476219637574887
1.3476219223283092
1.3476231907362306
1.3476219227902668
1.3476455514169579
1.3476219329784433
1.3478602129666863
1.3476219095877586
1.3486451353339457
1.4984672425806227
1.4987716010836798
1.4984672728512809
1.498495212437909
1.498467257466551
1.4984686272693171
1.4984672568552826
1.4984672974437607
1.4984672568431292
1.4984672576356548
1.4984672568429642
1.4984672568538044
1.4984672568429624
1.4984672568430697
1.4984672568429624
1.498467256842964
1.4984672568429624
1.4984672568430697
1.4984672568429624
1.4984672568538044
1.4984672568429642
1.4984672576356548
1.4984672568431292
1.4984672974437607
1.4984672568552826
1.4984686272693171
1.498467257466551
1.498495212437909
1.4984672728512809
1.4987716010836798
1.4984672425806227
1.5
1.6494349794746996
1.6497675737922886
1.6494350098119388
1.649463141030747
1.6494349934317902
1.6494362526203232
1.6494349928583274
1.6494350267963818
1.6494349928481034
1.6494349934498402
1.6494349928479783
1.6494349928554446
1.6494349928479766
1.6494349928480438
1.6494349928479766
1.6494349928479779
1.6494349928479766
1.6494349928480438
1.6494349928479766
1.6494349928554446
1.6494349928479783
1.6494349934498402
1.6494349928481034
1.6494350267963818
1.6494349928583274
1.6494362526203232
1.6494349934317902
1.649463141030747
1.6494350098119388
1.6497675737922886
1.6494349794746996
1.6513548646660543
1.7753413503395634
1.7756469640108747
1.7753413739917756
1.7753653830369849
1.7753413617220317
1.7753423563087229
1.7753413613338178
1.7753413861250344
1.7753413613274804
1.7753413617339768
1.7753413613274096
1.7753413613320737
1.7753413613274087
1.7753413613274467
1.7753413613274087
1.7753413613274096
1.7753413613274087
1.7753413613274467
1.7753413613274087
1.7753413613320737
1.7753413613274096
1.7753413617339768
1.7753413613274804
1.7753413861250344
1.7753413613338178
1.7753423563087229
1.7753413617220317
1.7753653830369849
1.7753413739917756
1.7756469640108747
1.7753413503395634
1.7772998611746911
1.8653808776539451
1.8656208578661657
1.8653808926151896
1.8653986594650387
1.8653808857804317
1.8653815798020548
1.8653808855788985
1.8653809019142742
1.8653808855758076
1.8653808858290075
1.8653808855757743
1.8653808855785257
1.8653808855757741
1.8653808855757967
1.8653808855757741
1.8653808855757741
1.8653808855757741
1.8653808855757967
1.8653808855757741
1.8653808855785257
1.8653808855757743
1.8653808858290075
1.8653808855758076
1.8653809019142742
1.8653808855788985
1.8653815798020548
1.8653808857804317
1.8653986594650387
1.8653808926151896
1.8656208578661657
1.8653808776539451
1.8670357598021707
1.9229370941566679
1.9231035220111461
1.9229371020920358
1.9229488887856436
1.9229370990437444
1.9229375407907838
1.9229370989578023
1.9229371089586316
1.9229370989565402
1.9229370991058974
1.9229370989565269
1.9229370989580901
1.9229370989565269
1.922937098956538
1.9229370989565269
1.9229370989565269
1.9229370989565269
1.922937098956538
1.9229370989565269
1.9229370989580901
1.9229370989565269
1.9229370991058974
1.9229370989565402
1.9229371089586316
1.9229370989578023
1.9229375407907838
1.9229370990437444
1.9229488887856436
1.9229371020920358
1.9231035220111461
1.9229370941566679
1.9241418199787566
1.9571248938318209
1.9572303368481632
1.9571248974292057
1.9571321339235868
1.9571248962665615
1.9571251600571964
1.9571248962346484
1.9571249020589938
1.9571248962341927
1.9571248963191785
1.9571248962341878
1.9571248962350583
1.9571248962341878
1.9571248962341945
1.9571248962341878
1.9571248962341881
1.9571248962341878
1.9571248962341945
1.9571248962341878
1.9571248962350583
1.9571248962341878
1.9571248963191785
1.9571248962341927
1.9571249020589938
1.9571248962346484
1.9571251600571964
1.9571248962665615
1.9571321339235868
1.9571248974292057
1.9572303368481632
1.9571248938318209
1.9579122720843811
1.9765447422436944
1.9766075156038641
1.9765447436710619
1.9765489612716289
1.9765447432721217
1.9765448942988115
1.9765447432613368
1.9765447465446797
1.9765447432611849
1.97654474330843
1.9765447432611838
1.9765447432616614
1.9765447432611838
1.9765447432611873
1.9765447432611838
1.9765447432611838
1.9765447432611838
1.9765447432611873
1.9765447432611838
1.9765447432616614
1.9765447432611838
1.97654474330843
1.9765447432611849
1.9765447465446797
1.9765447432613368
1.9765448942988115
1.9765447432721217
1.9765489612716289
1.9765447436710619
1.9766075156038641
1.9765447422436944
1.9770226300899743
1.9872920995646404
1.9873279821568621
1.9872921000751342
1.9872944779873927
1.9872920999473169
1.9872921841624354
1.9872920999438894
1.9872921017578815
1.9872920999438424
1.9872920999697323
1.9872920999438417
1.9872920999441011
1.9872920999438417
1.9872920999438433
1.9872920999438417
1.9872920999438417
1.9872920999438417
1.9872920999438433
1.9872920999438417
1.9872920999441011
1.9872920999438417
1.9872920999697323
1.9872920999438424
1.9872921017578815
1.9872920999438894
1.9872921841624354
1.9872920999473169
1.9872944779873927
1.9872921000751342
1.9873279821568621
1.9872920995646404
1.9875683491468141
1.9931536305079229
1.9931735304353191
1.9931536306792863
1.9931549412786203
1.9931536306400812
1.9931536768079683
1.9931536306390329
1.9931536316288705
1.9931536306390185
1.9931536306530884
1.9931536306390183
1.9931536306391586
1.9931536306390183
1.9931536306390194
1.9931536306390183
1.9931536306390183
1.9931536306390183
1.9931536306390194
1.9931536306390183
1.9931536306391586
1.9931536306390183
1.9931536306530884
1.9931536306390185
1.9931536316288705
1.9931536306390329
1.9931536768079683
1.9931536306400812
1.9931549412786203
1.9931536306792863
1.9931735304353191
1.9931536305079229
1.993307149075715
1.9963213162031945
1.9963323200515402
1.9963213162564688
1.9963220354881464
1.99632131624467
1.9963213414553835
1.9963213162443552
1.9963213167829703
1.9963213162443509
1.9963213162519868
1.9963213162443509
1.9963213162444282
1.9963213162443509
1.9963213162443514
1.9963213162443509
1.9963213162443509
1.9963213162443509
1.9963213162443514
1.9963213162443509
1.9963213162444282
1.9963213162443509
1.9963213162519868
1.9963213162443509
1.9963213167829703
1.9963213162443552
1.9963213414553835
1.99632131624467
1.9963220354881464
1.9963213162564688
1.9963323200515402
1.9963213162031945
1.9964063974185799
1.9980605723051212
1.998063138363849
1.99806057249475
1.9980608123892967
1.9980605724882448
1.9980605824935775
1.9980605724879614
1.9980605727235967
1.9980605724879572
1.9980605724915028
1.9980605724879572
1.9980605724879943
1.9980605724879572
1.9980605724879572
1.9980605724879572
1.9980605724879572
1.9980605724879572
1.9980605724879572
1.9980605724879572
1.9980605724879943
1.9980605724879572
1.9980605724915028
1.9980605724879572
1.9980605727235967
1.9980605724879614
1.9980605824935775
1.9980605724882448
1.9980608123892967
1.99806057249475
1.998063138363849
1.9980605723051212
1.9980732653366724
1.9989423474140207
1.9989457288775789
1.9989423474159889
1.9989425669915035
1.9989423474151997
1.9989423550739993
1.9989423474151864
1.9989423475782169
1.9989423474151864
1.9989423474174912
1.9989423474151864
1.998942347415209
1.9989423474151864
1.9989423474151864
1.9989423474151864
1.9989423474151864
1.9989423474151864
1.9989423474151864
1.9989423474151864
1.998942347415209
1.9989423474151864
1.9989423474174912
1.9989423474151864
1.9989423475782169
1.9989423474151864
1.9989423550739993
1.9989423474151997
1.9989425669915035
1.9989423474159889
1.9989457288775789
1.9989423474140207
1.9989677689632452
1.9998961098503458
1.9998367715686227
1.9998961168811535
1.9998928355538759
1.9998961164244977
1.9998960190699322
1.999896116408161
1.9998961146313039
1.9998961164079023
1.9998961163861748
1.9998961164078988
1.9998961164077107
1.9998961164078988
1.9998961164078981
1.9998961164078988
1.9998961164078988
1.9998961164078988
1.9998961164078981
1.9998961164078988
1.9998961164077107
1.9998961164078988
1.9998961163861748
1.9998961164079023
1.9998961146313039
1.999896116408161
1.9998960190699322
1.9998961164244977
1.9998928355538759
1.9998961168811535
1.9998367715686227
1.9998961098503458
1.9994472213630763
1.9996956445441227
1.9996971523780578
1.9996956445280278
1.9996957532829331
1.9996956445395226
1.9996956485742852
1.9996956445399852
1.9996956446293177
1.999695644539994
1.9996956445412919
1.9996956445399943
1.9996956445400078
1.9996956445399943
1.9996956445399943
1.9996956445399943
1.9996956445399943
1.9996956445399943
1.9996956445399943
1.9996956445399943
1.9996956445400078
1.9996956445399943
1.9996956445412919
1.999695644539994
1.9996956446293177
1.9996956445399852
1.9996956485742852
1.9996956445395226
1.9996957532829331
1.9996956445280278
1.9996971523780578
1.9996956445441227
1.999704042886487
2.0023927791795848
2.0019612003464915
2.0023928185014319
2.0023616380384821
2.0023927949516196
2.0023916271790387
2.0023927942969504
2.0023927681707088
2.0023927942874193
2.0023927939043857
2.0023927942873248
2.0023927942834017
2.0023927942873234
2.0023927942872923
2.0023927942873234
2.0023927942873234
2.0023927942873234
2.0023927942872923
2.0023927942873234
2.0023927942834017
2.0023927942873248
2.0023927939043857
2.0023927942874193
2.0023927681707088
2.0023927942969504
2.0023916271790387
2.0023927949516196
2.0023616380384821
2.0023928185014319
2.0019612003464915
2.0023927791795848
1.9998415637808975
1.9999151889582765
1.9999151889582765
1.9999151889582765
1.9999151889582765
1.9999151889582765
1.9999151889582765
1.9999151889582765
1.9999151889582765
1.9999151889582765
1.9999151889582765
1.9999151889582765
1.9999151889582765
1.9999151889582765
1.9999151889582765
1.9999151889582765
1.9999151889582765
1.9999151889582765
1.9999151889582765
1.9999151889582765
1.9999151889582765
1.9999151889582765
1.9999151889582765
1.9999151889582765
1.9999151889582765
1.9999151889582765
1.9999151889582765
1.9999151889582765
1.9999151889582765
1.9999151889582765
1.9999151889582765
1.9999151889582765
1.9999151889582765
1.0039503434619836
1.0031098425358149
1.003950831363718
1.0038261691033052
1.0039505699685396
1.0039407318955325
1.0039505507188351
1.0039500869919764
1.0039505500697701
1.0039505357982017
1.0039505500554591
1.0039505497498165
1.0039505500552308
1.0039505500504562
1.0039505500552275
1.0039505500551158
1.0039505500552275
1.0039505500504562
1.0039505500552308
1.0039505497498165
1.0039505500554591
1.0039505357982017
1.0039505500697701
1.0039500869919764
1.0039505507188351
1.0039407318955325
1.0039505699685396
1.0038261691033052
1.003950831363718
1.0031098425358149
1.0039503434619836
1.0000453978687025
1.0000894320499438
1.0000885562020791
1.0000894320713667
1.0000893467451655
1.0000894320473657
1.0000894272106569
1.0000894320469706
1.0000894318743776
1.0000894320469755
1.0000894320428459
1.0000894320469762
1.0000894320469076
1.0000894320469762
1.0000894320469755
1.0000894320469762
1.0000894320469762
1.0000894320469762
1.0000894320469755
1.0000894320469762
1.0000894320469076
1.0000894320469762
1.0000894320428459
1.0000894320469755
1.0000894318743776
1.0000894320469706
1.0000894272106569
1.0000894320473657
1.0000893467451655
1.0000894320713667
1.0000885562020791
1.0000894320499438
1.0000848110417238
1.0011099728002162
1.0008727359635461
1.001110074886451
1.0010825938263672
1.0011100623057938
1.0011083309254827
1.0011100611986312
1.0011099941625585
1.0011100611602208
1.0011100594262519
1.0011100611593873
1.0011100611276182
1.0011100611593746
1.0011100611589434
1.0011100611593746
1.0011100611593655
1.0011100611593746
1.0011100611589434
1.0011100611593746
1.0011100611276182
1.0011100611593873
1.0011100594262519
1.0011100611602208
1.0011099941625585
1.0011100611986312
1.0011083309254827
1.0011100623057938
1.0010825938263672
1.001110074886451
1.0008727359635461
1.0011099728002162
1.0001584362191025
1.0002956561601768
1.0002958395360109
1.0002956562179677
1.000295692093067
1.0002956562118321
1.0002956593286429
1.0002956562114016
1.0002956563630871
1.0002956562113892
1.0002956562160841
1.0002956562113887
1.0002956562114893
1.0002956562113887
1.0002956562113907
1.0002956562113887
1.0002956562113887
1.0002956562113887
1.0002956562113907
1.0002956562113887
1.0002956562114893
1.0002956562113887
1.0002956562160841
1.0002956562113892
1.0002956563630871
1.0002956562114016
1.0002956593286429
1.0002956562118321
1.000295692093067
1.0002956562179677
1.0002958395360109
1.0002956561601768
1.0002959571135133
1.0006915115878987
1.0006641545197932
1.0006915174349584
1.0006890468531362
1.0006915171952795
1.0006913930660313
1.0006915171653847
1.0006915132550518
1.0006915171642978
1.0006915170808615
1.0006915171642747
1.0006915171630031
1.0006915171642741
1.0006915171642603
1.0006915171642741
1.0006915171642738
1.0006915171642741
1.0006915171642603
1.0006915171642741
1.0006915171630031
1.0006915171642747
1.0006915170808615
1.0006915171642978
1.0006915132550518
1.0006915171653847
1.0006913930660313
1.0006915171952795
1.0006890468531362
1.0006915174349584
1.0006641545197932
1.0006915115878987
1.0005527786369237
1.0010252297098283
1.0010270259759266
1.001025229716453
1.0010254578678759
1.0010252297155593
1.0010252457416446
1.0010252297154916
1.0010252304076233
1.0010252297154902
1.0010252297353732
1.0010252297154902
1.0010252297158926
1.0010252297154902
1.0010252297154953
1.0010252297154902
1.0010252297154907
1.0010252297154902
1.0010252297154953
1.0010252297154902
1.0010252297158926
1.0010252297154902
1.0010252297353732
1.0010252297154902
1.0010252304076233
1.0010252297154916
1.0010252457416446
1.0010252297155593
1.0010254578678759
1.001025229716453
1.0010270259759266
1.0010252297098283
1.001032231036755
1.0019245579249265
1.0019261334532392
1.0019245581187575
1.0019248496083646
1.0019245581148288
1.0019245821769289
1.0019245581141407
1.0019245592404096
1.0019245581141158
1.0019245581479315
1.0019245581141147
1.0019245581148164
1.0019245581141147
1.0019245581141261
1.0019245581141147
1.001924558114115
1.0019245581141147
1.0019245581141261
1.0019245581141147
1.0019245581148164
1.0019245581141147
1.0019245581479315
1.0019245581141158
1.0019245592404096
1.0019245581141407
1.0019245821769289
1.0019245581148288
1.0019248496083646
1.0019245581187575
1.0019261334532392
1.0019245579249265
1.0019267346633276
1.0035692221858927
1.0035753988705896
1.0035692222317241
1.0035700025257979
1.0035692222228179
1.0035692768280546
1.0035692222221766
1.003569224573575
1.0035692222221571
1.0035692222895309
1.0035692222221568
1.0035692222235151
1.0035692222221568
1.0035692222221766
1.0035692222221568
1.0035692222221571
1.0035692222221568
1.0035692222221766
1.0035692222221568
1.0035692222235151
1.0035692222221568
1.0035692222895309
1.0035692222221571
1.003569224573575
1.0035692222221766
1.0035692768280546
1.0035692222228179
1.0035700025257979
1.0035692222317241
1.0035753988705896
1.0035692221858927
1.0035936025814203
1.0066491287714767
1.0066602382807877
1.006649128915996
1.0066505383871363
1.0066491288865462
1.0066492276654304
1.006649128884447
1.0066491331373193
1.0066491288843824
1.0066491290061079
1.0066491288843811
1.006649128886834
1.0066491288843811
1.0066491288844168
1.0066491288843811
1.006649128884382
1.0066491288843811
1.0066491288844168
1.0066491288843811
1.006649128886834
1.0066491288843811
1.0066491290061079
1.0066491288843824
1.0066491331373193
1.006649128884447
1.0066492276654304
1.0066491288865462
1.0066505383871363
1.006649128915996
1.0066602382807877
1.0066491287714767
1.006692850924285
1.0123525741942594
1.0123724411265931
1.0123525746054931
1.012355088799026
1.0123525745105224
1.0123527502749623
1.0123525745039297
1.0123525820488928
1.012352574503729
1.0123525747189368
1.012352574503725
1.0123525745080466
1.0123525745037247
1.0123525745037893
1.0123525745037247
1.0123525745037263
1.0123525745037247
1.0123525745037893
1.0123525745037247
1.0123525745080466
1.012352574503725
1.0123525747189368
1.012352574503729
1.0123525820488928
1.0123525745039297
1.0123527502749623
1.0123525745105224
1.012355088799026
1.0123525746054931
1.0123724411265931
1.0123525741942594
1.0124316508531859
1.0228384606046337
1.0228728912735339
1.022838461724034
1.0228428127517335
1.0228384614318085
1.0228387645101955
1.0228384614121111
1.0228384743528409
1.0228384614115196
1.0228384617782385
1.0228384614115082
1.0228384614188164
1.0228384614115082
1.0228384614116148
1.0228384614115082
1.0228384614115105
1.0228384614115082
1.0228384614116148
1.0228384614115082
1.0228384614188164
1.0228384614115082
1.0228384617782385
1.0228384614115196
1.0228384743528409
1.0228384614121111
1.0228387645101955
1.0228384614318085
1.0228428127517335
1.022838461724034
1.0228728912735339
1.0228384606046337
1.0229773699100257
1.0418481108986268
1.041905853167193
1.04184811368938
1.0418553659222087
1.0418481128444268
1.0418486134487164
1.0418481127896411
1.0418481339218422
1.041848112788025
1.0418481133791566
1.0418481127879942
1.0418481127996122
1.0418481127879937
1.0418481127881603
1.0418481127879937
1.0418481127879964
1.0418481127879937
1.0418481127881603
1.0418481127879937
1.0418481127996122
1.0418481127879942
1.0418481133791566
1.041848112788025
1.0418481339218422
1.0418481127896411
1.0418486134487164
1.0418481128444268
1.0418553659222087
1.04184811368938
1.041905853167193
1.0418481108986268
1.0420877279156189
1.0754522916789744
1.0755451915763101
1.0754522979162158
1.0754637989823743
1.0754522956732606
1.0754530747833462
1.0754522955349977
1.0754523277050163
1.0754522955310455
1.0754522964093163
1.07545229553097
1.075452295547789
1.0754522955309689
1.0754522955312049
1.0754522955309689
1.0754522955309735
1.0754522955309689
1.0754522955312049
1.0754522955309689
1.075452295547789
1.07545229553097
1.0754522964093163
1.0754522955310455
1.0754523277050163
1.0754522955349977
1.0754530747833462
1.0754522956732606
1.0754637989823743
1.0754522979162158
1.0755451915763101
1.0754522916789744
1.0758581800212434
1.1322911365558621
1.1324331258836902
1.1322911487175924
1.13230825843026
1.1322911434147043
1.1322922631973593
1.1322911431085598
1.1322911875559891
1.1322911431001967
1.1322911442629289
1.1322911431000426
1.1322911431213294
1.13229114310004
1.1322911431003266
1.13229114310004
1.1322911431000462
1.13229114310004
1.1322911431003266
1.13229114310004
1.1322911431213294
1.1322911431000426
1.1322911442629289
1.1322911431001967
1.1322911875559891
1.1322911431085598
1.1322922631973593
1.1322911434147043
1.13230825843026
1.1322911487175924
1.1324331258836902
1.1322911365558621
1.1329642401978293
1.2216232057853667
1.2218267753276288
1.2216232259992841
1.2216466586127894
1.221623215305645
1.2216246629438248
1.2216232147394759
1.2216232686178106
1.2216232147250177
1.2216232160414295
1.2216232147247708
1.2216232147472277
1.2216232147247674
1.2216232147250468
1.221623214724767
1.2216232147247732
1.221623214724767
1.2216232147250468
1.2216232147247674
1.2216232147472277
1.2216232147247708
1.2216232160414295
1.2216232147250177
1.2216232686178106
1.2216232147394759
1.2216246629438248
1.221623215305645
1.2216466586127894
1.2216232259992841
1.2218267753276288
1.2216232057853667
1.2227001388253087
1.3470412938048415
1.347308447777209
1.3470413217944532
1.3470699677767961
1.3470413046492569
1.3470429307685543
1.3470413038375912
1.3470413591049342
1.3470413038187445
1.3470413050480829
1.347041303818449
1.3470413038375086
1.3470413038184459
1.3470413038186615
1.3470413038184459
1.3470413038184494
1.3470413038184459
1.3470413038186615
1.3470413038184459
1.3470413038375086
1.347041303818449
1.3470413050480829
1.3470413038187445
1.3470413591049342
1.3470413038375912
1.3470429307685543
1.3470413046492569
1.3470699677767961
1.3470413217944532
1.347308447777209
1.3470412938048415
1.3486451353339457
1.4979001906575831
1.4982079163989475
1.4979002215276889
1.4979303145766283
1.4979002014180465
1.4979017435656428
1.4979002005786886
1.4979002477376469
1.4979002005612165
1.4979002015039469
1.4979002005609694
1.4979002005741024
1.497900200560967
1.4979002005611013
1.497900200560967
1.4979002005609694
1.497900200560967
1.4979002005611013
1.497900200560967
1.4979002005741024
1.4979002005609694
1.4979002015039469
1.4979002005612165
1.4979002477376469
1.4979002005786886
1.4979017435656428
1.4979002014180465
1.4979303145766283
1.4979002215276889
1.4982079163989475
1.4979001906575831
1.5
1.6490560612597804
1.6493564901538913
1.6490560877026765
1.6490827651009281
1.6490560711186404
1.6490573068209649
1.6490560705020523
1.6490561046471408
1.6490560704904507
1.6490560711075315