# vtk DataFile Version 3.0
Euler density step 546
ASCII
DATASET STRUCTURED_POINTS
DIMENSIONS 32 32 32
ORIGIN 0 0 0
SPACING 0.3125 0.3125 0.3125
POINT_DATA 32768
SCALARS density double 1
LOOKUP_TABLE default
1.0089858738009596
1.0018375021553483
1.0090233203490511
1.0037331484700394
1.0090365733416542
1.0051599418550707
1.009037902474218
1.0063004406980016
1.0090352656783319
1.007396869625401
1.0090297274822519
1.0082872004795234
1.009025627457846
1.0087681152949153
1.0090241588358868
1.0089025903039677
1.0090241588358868
1.0087681152949153
1.009025627457846
1.0082872004795234
1.0090297274822519
1.007396869625401
1.0090352656783319
1.0063004406980016
1.009037902474218
1.0051599418550707
1.0090365733416542
1.0037331484700394
1.0090233203490511
1.0018375021553483
1.0089858738009596
1.0000453978687025
0.99975085849821566
0.99999079883393971
0.99975067682482088
0.99990262805300112
0.99975061810381016
0.99983342515682572
0.99975062498095968
0.9997883426778742
0.99975064069224984
0.99976507341740917
0.99975065619410486
0.99975536908060603
0.99975066697674164
0.99975201766060651
0.99975067128110817
0.99975126078089616
0.99975067128110817
0.99975201766060651
0.99975066697674164
0.99975536908060603
0.99975065619410486
0.99976507341740917
0.99975064069224984
0.9997883426778742
0.99975062498095968
0.99983342515682572
0.99975061810381016
0.99990262805300112
0.99975067682482088
0.99999079883393971
0.99975085849821566
1.0000848110417238
1.0083261663053522
1.0019958492713619
1.0083484838525449
1.0035346239621474
1.0083607319382042
1.0048043400351767
1.0083643273771021
1.0058588537610813
1.0083632435759347
1.0068986681693251
1.0083588984587404
1.0077223773384079
1.0083557576834858
1.0081467266389248
1.0083547049095554
1.0082607296771804
1.0083547049095554
1.0081467266389248
1.0083557576834858
1.0077223773384079
1.0083588984587404
1.0068986681693251
1.0083632435759347
1.0058588537610813
1.0083643273771021
1.0048043400351767
1.0083607319382042
1.0035346239621474
1.0083484838525449
1.0019958492713619
1.0083261663053522
1.0001584362191025
0.99952558871827357
1.0000857626802773
0.99952562944819234
0.99989315274183266
0.99952564428173352
0.99973486566082481
0.99952564378080067
0.99962460267559483
0.99952563838657293
0.99956363974573248
0.99952564387966936
0.99953741309249755
0.99952565147032923
0.99952867222358099
0.9995256547701088
0.99952682764996759
0.9995256547701088
0.99952867222358099
0.99952565147032923
0.99953741309249755
0.99952564387966936
0.99956363974573248
0.99952563838657293
0.99962460267559483
0.99952564378080067
0.99973486566082481
0.99952564428173352
0.99989315274183266
0.99952562944819234
1.0000857626802773
0.99952558871827357
1.0002959571135133
1.0067582376746564
1.0017676270771685
1.0067693192748857
1.0028924026481369
1.006777635383322
1.0038143942827917
1.0067818975379914
1.0046993641113737
1.006781586411535
1.0056458391954166
1.0067787608124192
1.006332693215791
1.0067770058483716
1.0066460875875978
1.0067764960835131
1.0067229056913845
1.0067764960835131
1.0066460875875978
1.0067770058483716
1.006332693215791
1.0067787608124192
1.0056458391954166
1.006781586411535
1.0046993641113737
1.0067818975379914
1.0038143942827917
1.006777635383322
1.0028924026481369
1.0067693192748857
1.0017676270771685
1.0067582376746564
1.0005527786369237
0.99964305729167091
1.0006784636772841
0.99964332149715307
1.0003482172890028
0.99964354713883385
1.0000658269769986
0.9996436144923091
0.99985383573529674
0.99964358970518374
0.99972666760400208
0.99964356665971055
0.99966917727723015
0.99964356023522305
0.99964989784975555
0.99964355940266414
0.99964590473865222
0.99964355940266414
0.99964989784975555
0.99964356023522305
0.99966917727723015
0.99964356665971055
0.99972666760400208
0.99964358970518374
0.99985383573529674
0.9996436144923091
1.0000658269769986
0.99964354713883385
1.0003482172890028
0.99964332149715307
1.0006784636772841
0.99964305729167091
1.001032231036755
1.0062760279119476
1.002681212481636
1.006281217482351
1.0034081374868871
1.0062865072408682
1.0040977700456
1.0062896566742652
1.0049001152809973
1.0062894478169897
1.0056404715867384
1.0062881784482205
1.0060707912074021
1.0062875451942932
1.0062328544150834
1.0062873874554683
1.0062676563632813
1.0062873874554683
1.0062328544150834
1.0062875451942932
1.0060707912074021
1.0062881784482205
1.0056404715867384
1.0062894478169897
1.0049001152809973
1.0062896566742652
1.0040977700456
1.0062865072408682
1.0034081374868871
1.006281217482351
1.002681212481636
1.0062760279119476
1.0019267346633276
1.0014697153820435
1.0030960112915832
1.001470355947047
1.0026193324721429
1.0014709708768195
1.0021992018719934
1.0014711897309434
1.0018589344588011
1.0014711195158721
1.0016340543439195
1.0014710277711938
1.0015237261917407
1.0014709923246536
1.0014845142468116
1.0014709846679264
1.0014761115243367
1.0014709846679264
1.0014845142468116
1.0014709923246536
1.0015237261917407
1.0014710277711938
1.0016340543439195
1.0014711195158721
1.0018589344588011
1.0014711897309434
1.0021992018719934
1.0014709708768195
1.0026193324721429
1.001470355947047
1.0030960112915832
1.0014697153820435
1.0035936025814203
1.0092521683524645
1.007238760366191
1.0092551181926117
1.0077642565698375
1.0092585261867415
1.0083085182298988
1.0092602606466579
1.0088108173664685
1.0092601973298074
1.0091162890956082
1.0092597886092041
1.0092304495196402
1.0092596092732116
1.0092565927598398
1.0092595677335763
1.009259822463789
1.0092595677335763
1.0092565927598398
1.0092596092732116
1.0092304495196402
1.0092597886092041
1.0091162890956082
1.0092601973298074
1.0088108173664685
1.0092602606466579
1.0083085182298988
1.0092585261867415
1.0077642565698375
1.0092551181926117
1.007238760366191
1.0092521683524645
1.006692850924285
1.0095317797815897
1.0118020122151006
1.0095332859467896
1.0111791367341605
1.0095345891261136
1.0106286734760652
1.0095350232001621
1.0101560790501907
1.0095348081622069
1.0098127564484149
1.009534538878649
1.0096293561246752
1.0095344283277159
1.0095598609554299
1.0095344030978515
1.009544361869702
1.0095344030978515
1.0095598609554299
1.0095344283277159
1.0096293561246752
1.009534538878649
1.0098127564484149
1.0095348081622069
1.0101560790501907
1.0095350232001621
1.0106286734760652
1.0095345891261136
1.0111791367341605
1.0095332859467896
1.0118020122151006
1.0095317797815897
1.0124316508531859
1.0229610012522343
1.0231565008883772
1.0229639115868487
1.0232711183841392
1.0229664994842707
1.0233691218723389
1.0229674818344108
1.023337642166652
1.0229672485063568
1.0231895557967228
1.0229668400243448
1.0230573086228494
1.0229666598844447
1.0229938211710861
1.0229666168663534
1.0229779873341578
1.0229666168663534
1.0229938211710861
1.0229666598844447
1.0230573086228494
1.0229668400243448
1.0231895557967228
1.0229672485063568
1.023337642166652
1.0229674818344108
1.0233691218723389
1.0229664994842707
1.0232711183841392
1.0229639115868487
1.0231565008883772
1.0229610012522343
1.0229773699100257
1.0382468316778097
1.0412882860865329
1.0382505840007903
1.0404489051910437
1.0382529948133554
1.0397442125667431
1.0382535575522118
1.039135227340811
1.0382529651207582
1.0386647730153229
1.0382523210392147
1.0383977637123967
1.0382520520635179
1.038292100255515
1.0382519891346107
1.038267938417802
1.0382519891346107
1.038292100255515
1.0382520520635179
1.0383977637123967
1.0382523210392147
1.0386647730153229
1.0382529651207582
1.039135227340811
1.0382535575522118
1.0397442125667431
1.0382529948133554
1.0404489051910437
1.0382505840007903
1.0412882860865329
1.0382468316778097
1.0420877279156189
1.07292944181414
1.0754216069847025
1.0729356369783687
1.0748329583918321
1.0729388130242064
1.074348459017693
1.072939361449295
1.073850370611493
1.0729384814553102
1.0733899032014551
1.0729375746123182
1.0731023018072861
1.0729371950767463
1.0729832843416507
1.0729371059037753
1.0729555661360437
1.0729371059037753
1.0729832843416507
1.0729371950767463
1.0731023018072861
1.0729375746123182
1.0733899032014551
1.0729384814553102
1.073850370611493
1.072939361449295
1.074348459017693
1.0729388130242064
1.0748329583918321
1.0729356369783687
1.0754216069847025
1.07292944181414
1.0758581800212434
1.1277146933926159
1.1318931125186391
1.1277252137865876
1.1306225928347473
1.1277288875893476
1.1296752986766059
1.1277289403588757
1.1288946474882002
1.1277274590258284
1.12827868969629
1.1277261599006425
1.1279211958958968
1.1277256405303184
1.127778832290955
1.1277255216021214
1.1277463912941748
1.1277255216021214
1.127778832290955
1.1277256405303184
1.1279211958958968
1.1277261599006425
1.12827868969629
1.1277274590258284
1.1288946474882002
1.1277289403588757
1.1296752986766059
1.1277288875893476
1.1306225928347473
1.1277252137865876
1.1318931125186391
1.1277146933926159
1.1329642401978293
1.2170513020069036
1.2215986584911536
1.2170683992032085
1.220185969030398
1.2170720639774957
1.2191980357441861
1.2170713362033314
1.2183691297808186
1.2170691383722094
1.2176860827519993
1.2170674019273497
1.2172837297705057
1.2170667363938286
1.2171245563692672
1.2170665888101106
1.2170887545066955
1.2170665888101106
1.2171245563692672
1.2170667363938286
1.2172837297705057
1.2170674019273497
1.2176860827519993
1.2170691383722094
1.2183691297808186
1.2170713362033314
1.2191980357441861
1.2170720639774957
1.220185969030398
1.2170683992032085
1.2215986584911536
1.2170513020069036
1.2227001388253087
1.3413381185962849
1.3468090781233475
1.3413631154753676
1.345007276358424
1.3413659252189067
1.3438134939546473
1.341364017429745
1.3428430633672714
1.3413608854403229
1.3420515634912238
1.3413586475208157
1.3415942127143543
1.3413578405326705
1.3414184948450121
1.3413576705014458
1.341380056043761
1.3413576705014458
1.3414184948450121
1.3413578405326705
1.3415942127143543
1.3413586475208157
1.3420515634912238
1.3413608854403229
1.3428430633672714
1.341364017429745
1.3438134939546473
1.3413659252189067
1.345007276358424
1.3413631154753676
1.3468090781233475
1.3413381185962849
1.3486451353339457
1.4911503284039398
1.4967852947983906
1.4911815274149569
1.4950104929812911
1.4911823833666946
1.4938287088733138
1.4911791368525285
1.492798714370863
1.4911750329237632
1.4919208907724502
1.4911723347910004
1.4914184116630558
1.4911714276004218
1.4912318546176235
1.4911712483151125
1.4911924788172846
1.4911712483151125
1.4912318546176235
1.4911714276004218
1.4914184116630558
1.4911723347910004
1.4919208907724502
1.4911750329237632
1.492798714370863
1.4911791368525285
1.4938287088733138
1.4911823833666946
1.4950104929812911
1.4911815274149569
1.4967852947983906
1.4911503284039398
1.5
1.6401644216784843
1.6458421585904757
1.6401988932430716
1.6441808408593757
1.6401979301354195
1.6430213960389404
1.6401936783403086
1.6419251764559892
1.640188771950263
1.640964505281612
1.640185779637368
1.6404299535365556
1.6401848531623064
1.6402412762838521
1.6401846838764689
1.6402033303511914
1.6401846838764689
1.6402412762838521
1.6401848531623064
1.6404299535365556
1.640185779637368
1.640964505281612
1.640188771950263
1.6419251764559892
1.6401936783403086
1.6430213960389404
1.6401979301354195
1.6441808408593757
1.6401988932430716
1.6458421585904757
1.6401644216784843
1.6513548646660543
1.7649859689497502
1.7704101313886382
1.7650190434606146
1.7690055811325271
1.7650184409827594
1.7679405827586436
1.76501416093372
1.7667946378091379
1.7650089069583978
1.7657732327572777
1.7650059267024083
1.7652322614241802
1.7650050870997136
1.7650537667119941
1.7650049467075544
1.7650199534526856
1.7650049467075544
1.7650537667119941
1.7650050870997136
1.7652322614241802
1.7650059267024083
1.7657732327572777
1.7650089069583978
1.7667946378091379
1.76501416093372
1.7679405827586436
1.7650184409827594
1.7690055811325271
1.7650190434606146
1.7704101313886382
1.7649859689497502
1.7772998611746911
1.8547049239748128
1.860216207245609
1.854734374202567
1.858820679194527
1.8547357910457358
1.8577337727393171
1.8547320873338671
1.8564882193498589
1.8547270083228322
1.8554330421854413
1.8547243782091212
1.8549185299478699
1.8547237105084791
1.8547623414122651
1.8547236086597414
1.8547346885153215
1.8547236086597414
1.8547623414122651
1.8547237105084791
1.8549185299478699
1.8547243782091212
1.8554330421854413
1.8547270083228322
1.8564882193498589
1.8547320873338671
1.8577337727393171
1.8547357910457358
1.858820679194527
1.854734374202567
1.860216207245609
1.8547049239748128
1.8670357598021707
1.9138989700022477
1.9188881063573404
1.9139226721230422
1.9178048026783119
1.9139259268588935
1.9168170125523534
1.9139230866038099
1.9155356232669056
1.913918763194429
1.9145212656507931
1.91391673434705
1.9140702673618388
1.9139162691010985
1.9139445979446776
1.9139162039956876
1.9139237935483437
1.9139162039956876
1.9139445979446776
1.9139162691010985
1.9140702673618388
1.91391673434705
1.9145212656507931
1.913918763194429
1.9155356232669056
1.9139230866038099
1.9168170125523534
1.9139259268588935
1.9178048026783119
1.9139226721230422
1.9188881063573404
1.9138989700022477
1.9241418199787566
1.9482330731419388
1.9536695412788456
1.9482512922776254
1.9523101974477408
1.9482553305204544
1.9510440908458804
1.9482531548523587
1.9496632953735704
1.9482498451880277
1.9487313790976024
1.9482484579483423
1.9483618779988283
1.9482481698185847
1.94826765706995
1.948248132561281
1.9482530403211304
1.948248132561281
1.94826765706995
1.9482481698185847
1.9483618779988283
1.9482484579483423
1.9487313790976024
1.9482498451880277
1.9496632953735704
1.9482531548523587
1.9510440908458804
1.9482553305204544
1.9523101974477408
1.9482512922776254
1.9536695412788456
1.9482330731419388
1.9579122720843811
1.9710496491414102
1.9746697880829713
1.9710620470594165
1.9740319114430593
1.9710660547500245
1.9731893821916453
1.9710648188504809
1.9721118708227448
1.9710627160436098
1.9714035263888039
1.9710618975846079
1.9711381303950577
1.9710617393862722
1.9710741873667474
1.9710617201186316
1.9710647141641182
1.9710617201186316
1.9710741873667474
1.9710617393862722
1.9711381303950577
1.9710618975846079
1.9714035263888039
1.9710627160436098
1.9721118708227448
1.9710648188504809
1.9731893821916453
1.9710660547500245
1.9740319114430593
1.9710620470594165
1.9746697880829713
1.9710496491414102
1.9770226300899743
1.9803814218362161
1.9851390241353699
1.9803898173779078
1.9837640288462779
1.9803928380131652
1.9824005003403546
1.9803919254096096
1.9812468101193745
1.9803906078102802
1.9806410407719566
1.980390151530161
1.9804419629390906
1.9803900707797562
1.9803980233117546
1.980390061564812
1.9803918829228471
1.980390061564812
1.9803980233117546
1.9803900707797562
1.9804419629390906
1.980390151530161
1.9806410407719566
1.9803906078102802
1.9812468101193745
1.9803919254096096
1.9824005003403546
1.9803928380131652
1.9837640288462779
1.9803898173779078
1.9851390241353699
1.9803814218362161
1.9875683491468141
1.9915341187676352
1.9925225489103475
1.9915405056298703
1.9923269814526903
1.9915435968531339
1.9921281076009008
1.9915433558556519
1.9918401260666962
1.9915426731447179
1.9916398587868205
1.9915424370880344
1.9915639845312727
1.9915423955302682
1.9915458525101315
1.9915423908046757
1.9915432047726238
1.9915423908046757
1.9915458525101315
1.9915423955302682
1.9915639845312727
1.9915424370880344
1.9916398587868205
1.9915426731447179
1.9918401260666962
1.9915433558556519
1.9921281076009008
1.9915435968531339
1.9923269814526903
1.9915405056298703
1.9925225489103475
1.9915341187676352
1.993307149075715
1.9916443901763685
1.9949061783516193
1.9916474285719725
1.9937650592771774
1.9916486975662906
1.9927495077916706
1.9916484557593932
1.9920594723081768
1.9916481212229
1.9917561208067704
1.9916480215212706
1.9916684901761255
1.9916480059656794
1.9916509278573928
1.9916480043618152
1.9916486354406382
1.9916480043618152
1.9916509278573928
1.9916480059656794
1.9916684901761255
1.9916480215212706
1.9917561208067704
1.9916481212229
1.9920594723081768
1.9916484557593932
1.9927495077916706
1.9916486975662906
1.9937650592771774
1.9916474285719725
1.9949061783516193
1.9916443901763685
1.9964063974185799
1.9994892478466697
1.9980485927815783
1.9994967413870304
1.9981054850220179
1.9995003323863316
1.9984916502119761
1.9994997944034267
1.999049609134445
1.9994987426543849
1.999371370957171
1.999498387084566
1.9994739034240743
1.9994983253343639
1.9994949054825024
1.9994983183263191
1.9994976107394387
1.9994983183263191
1.9994949054825024
1.9994983253343639
1.9994739034240743
1.999498387084566
1.999371370957171
1.9994987426543849
1.999049609134445
1.9994997944034267
1.9984916502119761
1.9995003323863316
1.9981054850220179
1.9994967413870304
1.9980485927815783
1.9994892478466697
1.9980732653366724
1.9964303636662466
1.9981381664032396
1.9964311959048275
1.9974424754725464
1.9964315213294046
1.996907944942889
1.9964314817031661
1.9965984081168804
1.9964314418482187
1.9964740392415972
1.9964314364898588
1.9964394464154012
1.9964314368094884
1.9964325842364807
1.9964314369744522
1.9964316867946492
1.9964314369744522
1.9964325842364807
1.9964314368094884
1.9964394464154012
1.9964314364898588
1.9964740392415972
1.9964314418482187
1.9965984081168804
1.9964314817031661
1.996907944942889
1.9964315213294046
1.9974424754725464
1.9964311959048275
1.9981381664032396
1.9964303636662466
1.9989677689632452
2.0036585288704436
2.0004788364720545
2.0036768866615242
2.0011481808789604
2.0036807398017302
2.0017735975442097
2.0036783797442586
2.0026859485466937
2.0036753388151607
2.0033440490350363
2.0036741721334317
2.003599857963168
2.0036739453693291
2.0036619549582748
2.0036739175363771
2.00367109493898
2.0036739175363771
2.0036619549582748
2.0036739453693291
2.003599857963168
2.0036741721334317
2.0033440490350363
2.0036753388151607
2.0026859485466937
2.0036783797442586
2.0017735975442097
2.0036807398017302
2.0011481808789604
2.0036768866615242
2.0004788364720545
2.0036585288704436
1.9994472213630763
1.9987263055673943
1.9993985427573264
1.9987262150926777
1.9991012120619021
1.9987262799796546
1.9988900090718713
1.9987263095694803
1.9987822480681494
1.9987263347148347
1.9987413199217434
1.9987263494661311
1.99872946513168
1.9987263536856719
1.9987268599629204
1.9987263543929807
1.9987264792186696
1.9987263543929807
1.9987268599629204
1.9987263536856719
1.99872946513168
1.9987263494661311
1.9987413199217434
1.9987263347148347
1.9987822480681494
1.9987263095694803
1.9988900090718713
1.9987262799796546
1.9991012120619021
1.9987262150926777
1.9993985427573264
1.9987263055673943
1.999704042886487
2.0067466256590594
2.0021980993151569
2.0067849304721199
2.0035458320769481
2.0067805875764422
2.0045017612604843
2.0067738978208687
2.0055452632847244
2.0067686093715236
2.0063241729757069
2.0067665102954009
2.0066574048225871
2.0067660607095084
2.0067467845603946
2.0067660001045913
2.0067610728359497
2.0067660001045913
2.0067467845603946
2.0067660607095084
2.0066574048225871
2.0067665102954009
2.0063241729757069
2.0067686093715236
2.0055452632847244
2.0067738978208687
2.0045017612604843
2.0067805875764422
2.0035458320769481
2.0067849304721199
2.0021980993151569
2.0067466256590594
1.9998415637808975
1.9999151889582765
1.9999151889582765
1.9999151889582765
1.9999151889582765
1.9999151889582765
1.9999151889582765
1.9999151889582765
1.9999151889582765
1.9999151889582765
1.9999151889582765
1.9999151889582765
1.9999151889582765
1.9999151889582765
1.9999151889582765
1.9999151889582765
1.9999151889582765
1.9999151889582765
1.9999151889582765
1.9999151889582765
1.9999151889582765
1.9999151889582765
1.9999151889582765
1.9999151889582765
1.9999151889582765
1.9999151889582765
1.9999151889582765
1.9999151889582765
1.9999151889582765
1.9999151889582765
1.9999151889582765
1.9999151889582765
1.9999151889582765
1.0020519600220681
1.0009929568352633
1.0020751622697528
1.001370194246376
1.0020766210303294
1.0014997408129573
1.0020741129891451
1.001489130865423
1.002073150767294
1.0015244479355385
1.0020717694924597
1.0017167135226339
1.0020700544541166
1.0019076438350873
1.0020691973833937
1.0019774178707967
1.0020691973833937
1.0019076438350873
1.0020700544541166
1.0017167135226339
1.0020717694924597
1.0015244479355385
1.002073150767294
1.001489130865423
1.0020741129891451
1.0014997408129573
1.0020766210303294
1.001370194246376
1.0020751622697528
1.0009929568352633
1.0020519600220681
1.0000453978687025
0.99995543857283897
1.000061949385266
0.99995527420956964
1.0000289722663092
0.99995524298783056
0.9999999224053211
0.99995526127146683
0.99997775428553659
0.99995527772101078
0.99996445334981221
0.99995528742859741
0.99995838232804435
0.99995529338828049
0.9999562110820126
0.99995529598812383
0.99995571408576811
0.99995529598812383
0.9999562110820126
0.99995529338828049
0.99995838232804435
0.99995528742859741
0.99996445334981221
0.99995527772101078
0.99997775428553659
0.99995526127146683
0.9999999224053211
0.99995524298783056
1.0000289722663092
0.99995527420956964
1.000061949385266
0.99995543857283897
1.0000848110417238
1.0012136775627993
1.0004922976449897
1.0012249893762739
1.0006086456333327
1.0012284859499536
1.0006785751836358
1.0012282147534353
1.000658577037268
1.0012282800103816
1.0007049933672918
1.001227208962405
1.0009042071549521
1.0012257798461648
1.0010867536108046
1.0012251114696145
1.0011503834680502
1.0012251114696145
1.0010867536108046
1.0012257798461648
1.0009042071549521
1.001227208962405
1.0007049933672918
1.0012282800103816
1.000658577037268
1.0012282147534353
1.0006785751836358
1.0012284859499536
1.0006086456333327
1.0012249893762739
1.0004922976449897
1.0012136775627993
1.0001584362191025
1.0000481687564686
1.0002479170919816
1.0000482108770348
1.0001965163999544
1.0000482206382357
1.0001464138025489
1.0000482271465103
1.0001019118007286
1.0000482265659136
1.0000712653634451
1.0000482257491652
1.0000559660556745
1.0000482273227305
1.0000503606324123
1.0000482285363137
1.0000491087502645
1.0000482285363137
1.0000503606324123
1.0000482273227305
1.0000559660556745
1.0000482257491652
1.0000712653634451
1.0000482265659136
1.0001019118007286
1.0000482271465103
1.0001464138025489
1.0000482206382357
1.0001965163999544
1.0000482108770348
1.0002479170919816
1.0000481687564686
1.0002959571135133
1.0011464589880721
1.0006412653146053
1.0011510942695991
1.0006908827436878
1.0011533335531855
1.0006998521601695
1.0011543086967183
1.0006064940388442
1.0011548234448129
1.000677053394186
1.0011539136867815
1.000893648200688
1.0011529381215776
1.0010552353141342
1.0011525558691003
1.0011052637878779
1.0011525558691003
1.0010552353141342
1.0011529381215776
1.000893648200688
1.0011539136867815
1.000677053394186
1.0011548234448129
1.0006064940388442
1.0011543086967183
1.0006998521601695
1.0011533335531855
1.0006908827436878
1.0011510942695991
1.0006412653146053
1.0011464589880721
1.0005527786369237
1.00069529400163
1.0009835247715519
1.0006954007666098
1.000924803500008
1.0006954856403061
1.000861324634212
1.0006955219242846
1.000795514913084
1.0006955125839483
1.000742548129101
1.0006954968594814
1.000712390444688
1.0006954906122261
1.0007002983730349
1.0006954893509961
1.0006974772234976
1.0006954893509961
1.0007002983730349
1.0006954906122261
1.000712390444688
1.0006954968594814
1.000742548129101
1.0006955125839483
1.000795514913084
1.0006955219242846
1.000861324634212
1.0006954856403061
1.000924803500008
1.0006954007666098
1.0009835247715519
1.00069529400163
1.001032231036755
1.0022509647144808
1.0018906092409146
1.0022527257204783
1.0018455654291325
1.0022540559824857
1.0017466069262901
1.002255272220884
1.0017229799927427
1.0022554969051747
1.0018973029972107
1.0022548767908841
1.0020992180607333
1.0022544218655536
1.0022063590693315
1.0022542771128715
1.0022341331299873
1.0022542771128715
1.0022063590693315
1.0022544218655536
1.0020992180607333
1.0022548767908841
1.0018973029972107
1.0022554969051747
1.0017229799927427
1.002255272220884
1.0017466069262901
1.0022540559824857
1.0018455654291325
1.0022527257204783
1.0018906092409146
1.0022509647144808
1.0019267346633276
1.0032553909269331
1.0035762989706958
1.0032555714990454
1.0035290833859671
1.003255742228671
1.0034757852597298
1.0032558276446557
1.0034085752260442
1.0032558099120117
1.0033377088823434
1.0032557668181314
1.0032882617586456
1.0032557453289039
1.0032656831688065
1.0032557396665402
1.0032600352803402
1.0032557396665402
1.0032656831688065
1.0032557453289039
1.0032882617586456
1.0032557668181314
1.0033377088823434
1.0032558099120117
1.0034085752260442
1.0032558276446557
1.0034757852597298
1.003255742228671
1.0035290833859671
1.0032555714990454
1.0035762989706958
1.0032553909269331
1.0035936025814203
1.0073775969152579
1.0067529516821558
1.0073784558006105
1.0067845840384968
1.0073795280850073
1.006858384704538
1.0073803641291268
1.0070378896142897
1.0073804011894483
1.007230378214679
1.0073801286262769
1.0073366576939429
1.0073799751308183
1.0073715384965889
1.0073799326632629
1.0073778958777919
1.0073799326632629
1.0073715384965889
1.0073799751308183
1.0073366576939429
1.0073801286262769
1.007230378214679
1.0073804011894483
1.0070378896142897
1.0073803641291268
1.006858384704538
1.0073795280850073
1.0067845840384968
1.0073784558006105
1.0067529516821558
1.0073775969152579
1.006692850924285
1.0121995975961868
1.0124931093423608
1.0121999834470559
1.012465519230886
1.012200252948136
1.0124409529043756
1.0122003832017312
1.0123955424923303
1.0122003469374117
1.0123196785007202
1.0122002490761783
1.0122523232632623
1.0122001939765513
1.0122172850630533
1.0122001780944576
1.0122079144335603
1.0122001780944576
1.0122172850630533
1.0122001939765513
1.0122523232632623
1.0122002490761783
1.0123196785007202
1.0122003469374117
1.0123955424923303
1.0122003832017312
1.0124409529043756
1.012200252948136
1.012465519230886
1.0121999834470559
1.0124931093423608
1.0121995975961868
1.0124316508531859
1.0239657874745218
1.0232971850922621
1.0239666089810193
1.023474947849788
1.0239673579873376
1.023698391693721
1.0239677796502309
1.0239081666620207
1.02396776567496
1.0240000167516006
1.0239676017959489
1.0240001463848558
1.0239675059565767
1.0239820578928838
1.02396747774787
1.0239750712774531
1.02396747774787
1.0239820578928838
1.0239675059565767
1.0240001463848558
1.0239676017959489
1.0240000167516006
1.02396776567496
1.0239081666620207
1.0239677796502309
1.023698391693721
1.0239673579873376
1.023474947849788
1.0239666089810193
1.0232971850922621
1.0239657874745218
1.0229773699100257
1.0420051456294548
1.0423080298945153
1.0420061400841494
1.0422577283730812
1.0420064846110073
1.0422442158159591
1.0420065870677078
1.0422243012943773
1.0420065066219482
1.0421549081987334
1.0420063265947188
1.0420761246393444
1.0420062176195291
1.0420303365459678
1.0420061843381199
1.0420174428406539
1.0420061843381199
1.0420303365459678
1.0420062176195291
1.0420761246393444
1.0420063265947188
1.0421549081987334
1.0420065066219482
1.0422243012943773
1.0420065870677078
1.0422442158159591
1.0420064846110073
1.0422577283730812
1.0420061400841494
1.0423080298945153
1.0420051456294548
1.0420877279156189
1.0766320241370104
1.0763986254594953
1.0766337206470828
1.0764927292814341
1.0766341357436027
1.0766466973248712
1.076634233571782
1.076763335697255
1.0766341343875501
1.0767629815592312
1.0766339106433147
1.0767032783106489
1.0766337713798102
1.0766591884454599
1.0766337280669425
1.0766458819248965
1.0766337280669425
1.0766591884454599
1.0766337713798102
1.0767032783106489
1.0766339106433147
1.0767629815592312
1.0766341343875501
1.076763335697255
1.076634233571782
1.0766466973248712
1.0766341357436027
1.0764927292814341
1.0766337206470828
1.0763986254594953
1.0766320241370104
1.0758581800212434
1.1329866797743395
1.133405068046061
1.1329895285055689
1.133240832141684
1.1329895906034473
1.1332124455715085
1.1329894513686503
1.1332144693271746
1.1329892769425571
1.1331554436348148
1.1329890026224574
1.1330701973603747
1.1329888351279744
1.1330171879834772
1.1329887833385033
1.1330019672117697
1.1329887833385033
1.1330171879834772
1.1329888351279744
1.1330701973603747
1.1329890026224574
1.1331554436348148
1.1329892769425571
1.1332144693271746
1.1329894513686503
1.1332124455715085
1.1329895906034473
1.133240832141684
1.1329895285055689
1.133405068046061
1.1329866797743395
1.1329642401978293
1.222836623498738
1.2230452472348581
1.2228406068206163
1.2229225124664191
1.222840193185377
1.2229737348974843
1.2228398909184548
1.2230383015850881
1.2228396845858167
1.2230042613310279
1.2228393754949727
1.2229219047684794
1.2228391872303617
1.2228677872291813
1.2228391297490597
1.2228521953175373
1.2228391297490597
1.2228677872291813
1.2228391872303617
1.2229219047684794
1.2228393754949727
1.2230042613310279
1.2228396845858167
1.2230383015850881
1.2228398909184548
1.2229737348974843
1.222840193185377
1.2229225124664191
1.2228406068206163
1.2230452472348581
1.222836623498738
1.2227001388253087
1.3474863092374574
1.3478114333248123
1.3474903540945424
1.347624682640254
1.3474894064156564
1.3476449799700054
1.3474890141966582
1.3477027208596848
1.3474888073155278
1.3476611051113934
1.3474884807784888
1.3475720705468319
1.3474882848913723
1.3475160540390361
1.3474882269000703
1.3475004143224349
1.3474882269000703
1.3475160540390361
1.3474882848913723
1.3475720705468319
1.3474884807784888
1.3476611051113934
1.3474888073155278
1.3477027208596848
1.3474890141966582
1.3476449799700054
1.3474894064156564
1.347624682640254
1.3474903540945424
1.3478114333248123
1.3474863092374574
1.3486451353339457
1.4970698421180988
1.497066262942002
1.4970726782068429
1.4970487306231934
1.4970715553782636
1.4971663821554972
1.4970712652715459
1.4972725843587777
1.4970711116954623
1.4972396778373054
1.4970708022253956
1.4971501420143916
1.497070619748333
1.4970955990804367
1.4970705680004377
1.4970809542555277
1.4970705680004377
1.4970955990804367
1.497070619748333
1.4971501420143916
1.4970708022253956
1.4972396778373054
1.4970711116954623
1.4972725843587777
1.4970712652715459
1.4971663821554972
1.4970715553782636
1.4970487306231934
1.4970726782068429
1.497066262942002
1.4970698421180988
1.5
1.6467301941982035
1.6465584754062055
1.6467313332673028
1.6466600652252241
1.6467308183134417
1.6468143652900611